V -t * -v 1.0a5 -a 0
A -t * -n 1 -p 0 -o 0x7fffffff -c 30 -a 1
A -t * -h 1 -m 1073741823 -s 0
c -t * -i 1 -n Blue
c -t * -i 2 -n Red
n -t * -a 4 -s 4 -S UP -v circle -c black -i black
n -t * -a 0 -s 0 -S UP -v circle -c black -i black
n -t * -a 5 -s 5 -S UP -v circle -c black -i black
n -t * -a 1 -s 1 -S UP -v circle -c black -i black
n -t * -a 6 -s 6 -S UP -v circle -c black -i black
n -t * -a 2 -s 2 -S UP -v circle -c black -i black
n -t * -a 7 -s 7 -S UP -v circle -c black -i black
n -t * -a 3 -s 3 -S UP -v circle -c black -i black
l -t * -s 0 -d 3 -S UP -r 100000000 -D 0.01 -c black -o right-down
l -t * -s 1 -d 3 -S UP -r 100000000 -D 0.01 -c black -o right-up
l -t * -s 2 -d 3 -S UP -r 100000000 -D 0.01 -c black -o right
l -t * -s 3 -d 4 -S UP -r 2000000 -D 0.01 -c black -o right
l -t * -s 5 -d 4 -S UP -r 100000000 -D 0.01 -c black -o left-down
l -t * -s 6 -d 4 -S UP -r 100000000 -D 0.01 -c black -o left-up
l -t * -s 7 -d 4 -S UP -r 100000000 -D 0.01 -c black -o left
+ -t 0.1 -s 1 -d 3 -p cbr -e 1000 -c 2 -i 0 -a 2 -x {1.0 6.0 0 ------- null}
- -t 0.1 -s 1 -d 3 -p cbr -e 1000 -c 2 -i 0 -a 2 -x {1.0 6.0 0 ------- null}
h -t 0.1 -s 1 -d 3 -p cbr -e 1000 -c 2 -i 0 -a 2 -x {1.0 6.0 -1 ------- null}
+ -t 0.108 -s 1 -d 3 -p cbr -e 1000 -c 2 -i 1 -a 2 -x {1.0 6.0 1 ------- null}
- -t 0.108 -s 1 -d 3 -p cbr -e 1000 -c 2 -i 1 -a 2 -x {1.0 6.0 1 ------- null}
h -t 0.108 -s 1 -d 3 -p cbr -e 1000 -c 2 -i 1 -a 2 -x {1.0 6.0 -1 ------- null}
r -t 0.11008 -s 1 -d 3 -p cbr -e 1000 -c 2 -i 0 -a 2 -x {1.0 6.0 0 ------- null}
+ -t 0.11008 -s 3 -d 4 -p cbr -e 1000 -c 2 -i 0 -a 2 -x {1.0 6.0 0 ------- null}
- -t 0.11008 -s 3 -d 4 -p cbr -e 1000 -c 2 -i 0 -a 2 -x {1.0 6.0 0 ------- null}
h -t 0.11008 -s 3 -d 4 -p cbr -e 1000 -c 2 -i 0 -a 2 -x {1.0 6.0 -1 ------- null}
+ -t 0.116 -s 1 -d 3 -p cbr -e 1000 -c 2 -i 2 -a 2 -x {1.0 6.0 2 ------- null}
- -t 0.116 -s 1 -d 3 -p cbr -e 1000 -c 2 -i 2 -a 2 -x {1.0 6.0 2 ------- null}
h -t 0.116 -s 1 -d 3 -p cbr -e 1000 -c 2 -i 2 -a 2 -x {1.0 6.0 -1 ------- null}
r -t 0.11808 -s 1 -d 3 -p cbr -e 1000 -c 2 -i 1 -a 2 -x {1.0 6.0 1 ------- null}
+ -t 0.11808 -s 3 -d 4 -p cbr -e 1000 -c 2 -i 1 -a 2 -x {1.0 6.0 1 ------- null}
- -t 0.11808 -s 3 -d 4 -p cbr -e 1000 -c 2 -i 1 -a 2 -x {1.0 6.0 1 ------- null}
h -t 0.11808 -s 3 -d 4 -p cbr -e 1000 -c 2 -i 1 -a 2 -x {1.0 6.0 -1 ------- null}
+ -t 0.124 -s 1 -d 3 -p cbr -e 1000 -c 2 -i 3 -a 2 -x {1.0 6.0 3 ------- null}
- -t 0.124 -s 1 -d 3 -p cbr -e 1000 -c 2 -i 3 -a 2 -x {1.0 6.0 3 ------- null}
h -t 0.124 -s 1 -d 3 -p cbr -e 1000 -c 2 -i 3 -a 2 -x {1.0 6.0 -1 ------- null}
r -t 0.12408 -s 3 -d 4 -p cbr -e 1000 -c 2 -i 0 -a 2 -x {1.0 6.0 0 ------- null}
+ -t 0.12408 -s 4 -d 6 -p cbr -e 1000 -c 2 -i 0 -a 2 -x {1.0 6.0 0 ------- null}
- -t 0.12408 -s 4 -d 6 -p cbr -e 1000 -c 2 -i 0 -a 2 -x {1.0 6.0 0 ------- null}
h -t 0.12408 -s 4 -d 6 -p cbr -e 1000 -c 2 -i 0 -a 2 -x {1.0 6.0 -1 ------- null}
r -t 0.12608 -s 1 -d 3 -p cbr -e 1000 -c 2 -i 2 -a 2 -x {1.0 6.0 2 ------- null}
+ -t 0.12608 -s 3 -d 4 -p cbr -e 1000 -c 2 -i 2 -a 2 -x {1.0 6.0 2 ------- null}
- -t 0.12608 -s 3 -d 4 -p cbr -e 1000 -c 2 -i 2 -a 2 -x {1.0 6.0 2 ------- null}
h -t 0.12608 -s 3 -d 4 -p cbr -e 1000 -c 2 -i 2 -a 2 -x {1.0 6.0 -1 ------- null}
+ -t 0.132 -s 1 -d 3 -p cbr -e 1000 -c 2 -i 4 -a 2 -x {1.0 6.0 4 ------- null}
- -t 0.132 -s 1 -d 3 -p cbr -e 1000 -c 2 -i 4 -a 2 -x {1.0 6.0 4 ------- null}
h -t 0.132 -s 1 -d 3 -p cbr -e 1000 -c 2 -i 4 -a 2 -x {1.0 6.0 -1 ------- null}
r -t 0.13208 -s 3 -d 4 -p cbr -e 1000 -c 2 -i 1 -a 2 -x {1.0 6.0 1 ------- null}
+ -t 0.13208 -s 4 -d 6 -p cbr -e 1000 -c 2 -i 1 -a 2 -x {1.0 6.0 1 ------- null}
- -t 0.13208 -s 4 -d 6 -p cbr -e 1000 -c 2 -i 1 -a 2 -x {1.0 6.0 1 ------- null}
h -t 0.13208 -s 4 -d 6 -p cbr -e 1000 -c 2 -i 1 -a 2 -x {1.0 6.0 -1 ------- null}
r -t 0.13408 -s 1 -d 3 -p cbr -e 1000 -c 2 -i 3 -a 2 -x {1.0 6.0 3 ------- null}
+ -t 0.13408 -s 3 -d 4 -p cbr -e 1000 -c 2 -i 3 -a 2 -x {1.0 6.0 3 ------- null}
- -t 0.13408 -s 3 -d 4 -p cbr -e 1000 -c 2 -i 3 -a 2 -x {1.0 6.0 3 ------- null}
h -t 0.13408 -s 3 -d 4 -p cbr -e 1000 -c 2 -i 3 -a 2 -x {1.0 6.0 -1 ------- null}
r -t 0.13416 -s 4 -d 6 -p cbr -e 1000 -c 2 -i 0 -a 2 -x {1.0 6.0 0 ------- null}
+ -t 0.14 -s 1 -d 3 -p cbr -e 1000 -c 2 -i 5 -a 2 -x {1.0 6.0 5 ------- null}
- -t 0.14 -s 1 -d 3 -p cbr -e 1000 -c 2 -i 5 -a 2 -x {1.0 6.0 5 ------- null}
h -t 0.14 -s 1 -d 3 -p cbr -e 1000 -c 2 -i 5 -a 2 -x {1.0 6.0 -1 ------- null}
r -t 0.14008 -s 3 -d 4 -p cbr -e 1000 -c 2 -i 2 -a 2 -x {1.0 6.0 2 ------- null}
+ -t 0.14008 -s 4 -d 6 -p cbr -e 1000 -c 2 -i 2 -a 2 -x {1.0 6.0 2 ------- null}
- -t 0.14008 -s 4 -d 6 -p cbr -e 1000 -c 2 -i 2 -a 2 -x {1.0 6.0 2 ------- null}
h -t 0.14008 -s 4 -d 6 -p cbr -e 1000 -c 2 -i 2 -a 2 -x {1.0 6.0 -1 ------- null}
r -t 0.14208 -s 1 -d 3 -p cbr -e 1000 -c 2 -i 4 -a 2 -x {1.0 6.0 4 ------- null}
+ -t 0.14208 -s 3 -d 4 -p cbr -e 1000 -c 2 -i 4 -a 2 -x {1.0 6.0 4 ------- null}
- -t 0.14208 -s 3 -d 4 -p cbr -e 1000 -c 2 -i 4 -a 2 -x {1.0 6.0 4 ------- null}
h -t 0.14208 -s 3 -d 4 -p cbr -e 1000 -c 2 -i 4 -a 2 -x {1.0 6.0 -1 ------- null}
r -t 0.14216 -s 4 -d 6 -p cbr -e 1000 -c 2 -i 1 -a 2 -x {1.0 6.0 1 ------- null}
+ -t 0.148 -s 1 -d 3 -p cbr -e 1000 -c 2 -i 6 -a 2 -x {1.0 6.0 6 ------- null}
- -t 0.148 -s 1 -d 3 -p cbr -e 1000 -c 2 -i 6 -a 2 -x {1.0 6.0 6 ------- null}
h -t 0.148 -s 1 -d 3 -p cbr -e 1000 -c 2 -i 6 -a 2 -x {1.0 6.0 -1 ------- null}
r -t 0.14808 -s 3 -d 4 -p cbr -e 1000 -c 2 -i 3 -a 2 -x {1.0 6.0 3 ------- null}
+ -t 0.14808 -s 4 -d 6 -p cbr -e 1000 -c 2 -i 3 -a 2 -x {1.0 6.0 3 ------- null}
- -t 0.14808 -s 4 -d 6 -p cbr -e 1000 -c 2 -i 3 -a 2 -x {1.0 6.0 3 ------- null}
h -t 0.14808 -s 4 -d 6 -p cbr -e 1000 -c 2 -i 3 -a 2 -x {1.0 6.0 -1 ------- null}
r -t 0.15008 -s 1 -d 3 -p cbr -e 1000 -c 2 -i 5 -a 2 -x {1.0 6.0 5 ------- null}
+ -t 0.15008 -s 3 -d 4 -p cbr -e 1000 -c 2 -i 5 -a 2 -x {1.0 6.0 5 ------- null}
- -t 0.15008 -s 3 -d 4 -p cbr -e 1000 -c 2 -i 5 -a 2 -x {1.0 6.0 5 ------- null}
h -t 0.15008 -s 3 -d 4 -p cbr -e 1000 -c 2 -i 5 -a 2 -x {1.0 6.0 -1 ------- null}
r -t 0.15016 -s 4 -d 6 -p cbr -e 1000 -c 2 -i 2 -a 2 -x {1.0 6.0 2 ------- null}
+ -t 0.156 -s 1 -d 3 -p cbr -e 1000 -c 2 -i 7 -a 2 -x {1.0 6.0 7 ------- null}
- -t 0.156 -s 1 -d 3 -p cbr -e 1000 -c 2 -i 7 -a 2 -x {1.0 6.0 7 ------- null}
h -t 0.156 -s 1 -d 3 -p cbr -e 1000 -c 2 -i 7 -a 2 -x {1.0 6.0 -1 ------- null}
r -t 0.15608 -s 3 -d 4 -p cbr -e 1000 -c 2 -i 4 -a 2 -x {1.0 6.0 4 ------- null}
+ -t 0.15608 -s 4 -d 6 -p cbr -e 1000 -c 2 -i 4 -a 2 -x {1.0 6.0 4 ------- null}
- -t 0.15608 -s 4 -d 6 -p cbr -e 1000 -c 2 -i 4 -a 2 -x {1.0 6.0 4 ------- null}
h -t 0.15608 -s 4 -d 6 -p cbr -e 1000 -c 2 -i 4 -a 2 -x {1.0 6.0 -1 ------- null}
r -t 0.15808 -s 1 -d 3 -p cbr -e 1000 -c 2 -i 6 -a 2 -x {1.0 6.0 6 ------- null}
+ -t 0.15808 -s 3 -d 4 -p cbr -e 1000 -c 2 -i 6 -a 2 -x {1.0 6.0 6 ------- null}
- -t 0.15808 -s 3 -d 4 -p cbr -e 1000 -c 2 -i 6 -a 2 -x {1.0 6.0 6 ------- null}
h -t 0.15808 -s 3 -d 4 -p cbr -e 1000 -c 2 -i 6 -a 2 -x {1.0 6.0 -1 ------- null}
r -t 0.15816 -s 4 -d 6 -p cbr -e 1000 -c 2 -i 3 -a 2 -x {1.0 6.0 3 ------- null}
+ -t 0.164 -s 1 -d 3 -p cbr -e 1000 -c 2 -i 8 -a 2 -x {1.0 6.0 8 ------- null}
- -t 0.164 -s 1 -d 3 -p cbr -e 1000 -c 2 -i 8 -a 2 -x {1.0 6.0 8 ------- null}
h -t 0.164 -s 1 -d 3 -p cbr -e 1000 -c 2 -i 8 -a 2 -x {1.0 6.0 -1 ------- null}
r -t 0.16408 -s 3 -d 4 -p cbr -e 1000 -c 2 -i 5 -a 2 -x {1.0 6.0 5 ------- null}
+ -t 0.16408 -s 4 -d 6 -p cbr -e 1000 -c 2 -i 5 -a 2 -x {1.0 6.0 5 ------- null}
- -t 0.16408 -s 4 -d 6 -p cbr -e 1000 -c 2 -i 5 -a 2 -x {1.0 6.0 5 ------- null}
h -t 0.16408 -s 4 -d 6 -p cbr -e 1000 -c 2 -i 5 -a 2 -x {1.0 6.0 -1 ------- null}
r -t 0.16608 -s 1 -d 3 -p cbr -e 1000 -c 2 -i 7 -a 2 -x {1.0 6.0 7 ------- null}
+ -t 0.16608 -s 3 -d 4 -p cbr -e 1000 -c 2 -i 7 -a 2 -x {1.0 6.0 7 ------- null}
- -t 0.16608 -s 3 -d 4 -p cbr -e 1000 -c 2 -i 7 -a 2 -x {1.0 6.0 7 ------- null}
h -t 0.16608 -s 3 -d 4 -p cbr -e 1000 -c 2 -i 7 -a 2 -x {1.0 6.0 -1 ------- null}
r -t 0.16616 -s 4 -d 6 -p cbr -e 1000 -c 2 -i 4 -a 2 -x {1.0 6.0 4 ------- null}
+ -t 0.172 -s 1 -d 3 -p cbr -e 1000 -c 2 -i 9 -a 2 -x {1.0 6.0 9 ------- null}
- -t 0.172 -s 1 -d 3 -p cbr -e 1000 -c 2 -i 9 -a 2 -x {1.0 6.0 9 ------- null}
h -t 0.172 -s 1 -d 3 -p cbr -e 1000 -c 2 -i 9 -a 2 -x {1.0 6.0 -1 ------- null}
r -t 0.17208 -s 3 -d 4 -p cbr -e 1000 -c 2 -i 6 -a 2 -x {1.0 6.0 6 ------- null}
+ -t 0.17208 -s 4 -d 6 -p cbr -e 1000 -c 2 -i 6 -a 2 -x {1.0 6.0 6 ------- null}
- -t 0.17208 -s 4 -d 6 -p cbr -e 1000 -c 2 -i 6 -a 2 -x {1.0 6.0 6 ------- null}
h -t 0.17208 -s 4 -d 6 -p cbr -e 1000 -c 2 -i 6 -a 2 -x {1.0 6.0 -1 ------- null}
r -t 0.17408 -s 1 -d 3 -p cbr -e 1000 -c 2 -i 8 -a 2 -x {1.0 6.0 8 ------- null}
+ -t 0.17408 -s 3 -d 4 -p cbr -e 1000 -c 2 -i 8 -a 2 -x {1.0 6.0 8 ------- null}
- -t 0.17408 -s 3 -d 4 -p cbr -e 1000 -c 2 -i 8 -a 2 -x {1.0 6.0 8 ------- null}
h -t 0.17408 -s 3 -d 4 -p cbr -e 1000 -c 2 -i 8 -a 2 -x {1.0 6.0 -1 ------- null}
r -t 0.17416 -s 4 -d 6 -p cbr -e 1000 -c 2 -i 5 -a 2 -x {1.0 6.0 5 ------- null}
+ -t 0.18 -s 1 -d 3 -p cbr -e 1000 -c 2 -i 10 -a 2 -x {1.0 6.0 10 ------- null}
- -t 0.18 -s 1 -d 3 -p cbr -e 1000 -c 2 -i 10 -a 2 -x {1.0 6.0 10 ------- null}
h -t 0.18 -s 1 -d 3 -p cbr -e 1000 -c 2 -i 10 -a 2 -x {1.0 6.0 -1 ------- null}
r -t 0.18008 -s 3 -d 4 -p cbr -e 1000 -c 2 -i 7 -a 2 -x {1.0 6.0 7 ------- null}
+ -t 0.18008 -s 4 -d 6 -p cbr -e 1000 -c 2 -i 7 -a 2 -x {1.0 6.0 7 ------- null}
- -t 0.18008 -s 4 -d 6 -p cbr -e 1000 -c 2 -i 7 -a 2 -x {1.0 6.0 7 ------- null}
h -t 0.18008 -s 4 -d 6 -p cbr -e 1000 -c 2 -i 7 -a 2 -x {1.0 6.0 -1 ------- null}
r -t 0.18208 -s 1 -d 3 -p cbr -e 1000 -c 2 -i 9 -a 2 -x {1.0 6.0 9 ------- null}
+ -t 0.18208 -s 3 -d 4 -p cbr -e 1000 -c 2 -i 9 -a 2 -x {1.0 6.0 9 ------- null}
- -t 0.18208 -s 3 -d 4 -p cbr -e 1000 -c 2 -i 9 -a 2 -x {1.0 6.0 9 ------- null}
h -t 0.18208 -s 3 -d 4 -p cbr -e 1000 -c 2 -i 9 -a 2 -x {1.0 6.0 -1 ------- null}
r -t 0.18216 -s 4 -d 6 -p cbr -e 1000 -c 2 -i 6 -a 2 -x {1.0 6.0 6 ------- null}
+ -t 0.188 -s 1 -d 3 -p cbr -e 1000 -c 2 -i 11 -a 2 -x {1.0 6.0 11 ------- null}
- -t 0.188 -s 1 -d 3 -p cbr -e 1000 -c 2 -i 11 -a 2 -x {1.0 6.0 11 ------- null}
h -t 0.188 -s 1 -d 3 -p cbr -e 1000 -c 2 -i 11 -a 2 -x {1.0 6.0 -1 ------- null}
r -t 0.18808 -s 3 -d 4 -p cbr -e 1000 -c 2 -i 8 -a 2 -x {1.0 6.0 8 ------- null}
+ -t 0.18808 -s 4 -d 6 -p cbr -e 1000 -c 2 -i 8 -a 2 -x {1.0 6.0 8 ------- null}
- -t 0.18808 -s 4 -d 6 -p cbr -e 1000 -c 2 -i 8 -a 2 -x {1.0 6.0 8 ------- null}
h -t 0.18808 -s 4 -d 6 -p cbr -e 1000 -c 2 -i 8 -a 2 -x {1.0 6.0 -1 ------- null}
r -t 0.19008 -s 1 -d 3 -p cbr -e 1000 -c 2 -i 10 -a 2 -x {1.0 6.0 10 ------- null}
+ -t 0.19008 -s 3 -d 4 -p cbr -e 1000 -c 2 -i 10 -a 2 -x {1.0 6.0 10 ------- null}
- -t 0.19008 -s 3 -d 4 -p cbr -e 1000 -c 2 -i 10 -a 2 -x {1.0 6.0 10 ------- null}
h -t 0.19008 -s 3 -d 4 -p cbr -e 1000 -c 2 -i 10 -a 2 -x {1.0 6.0 -1 ------- null}
r -t 0.19016 -s 4 -d 6 -p cbr -e 1000 -c 2 -i 7 -a 2 -x {1.0 6.0 7 ------- null}
+ -t 0.196 -s 1 -d 3 -p cbr -e 1000 -c 2 -i 12 -a 2 -x {1.0 6.0 12 ------- null}
- -t 0.196 -s 1 -d 3 -p cbr -e 1000 -c 2 -i 12 -a 2 -x {1.0 6.0 12 ------- null}
h -t 0.196 -s 1 -d 3 -p cbr -e 1000 -c 2 -i 12 -a 2 -x {1.0 6.0 -1 ------- null}
r -t 0.19608 -s 3 -d 4 -p cbr -e 1000 -c 2 -i 9 -a 2 -x {1.0 6.0 9 ------- null}
+ -t 0.19608 -s 4 -d 6 -p cbr -e 1000 -c 2 -i 9 -a 2 -x {1.0 6.0 9 ------- null}
- -t 0.19608 -s 4 -d 6 -p cbr -e 1000 -c 2 -i 9 -a 2 -x {1.0 6.0 9 ------- null}
h -t 0.19608 -s 4 -d 6 -p cbr -e 1000 -c 2 -i 9 -a 2 -x {1.0 6.0 -1 ------- null}
r -t 0.19808 -s 1 -d 3 -p cbr -e 1000 -c 2 -i 11 -a 2 -x {1.0 6.0 11 ------- null}
+ -t 0.19808 -s 3 -d 4 -p cbr -e 1000 -c 2 -i 11 -a 2 -x {1.0 6.0 11 ------- null}
- -t 0.19808 -s 3 -d 4 -p cbr -e 1000 -c 2 -i 11 -a 2 -x {1.0 6.0 11 ------- null}
h -t 0.19808 -s 3 -d 4 -p cbr -e 1000 -c 2 -i 11 -a 2 -x {1.0 6.0 -1 ------- null}
r -t 0.19816 -s 4 -d 6 -p cbr -e 1000 -c 2 -i 8 -a 2 -x {1.0 6.0 8 ------- null}
+ -t 0.204 -s 1 -d 3 -p cbr -e 1000 -c 2 -i 13 -a 2 -x {1.0 6.0 13 ------- null}
- -t 0.204 -s 1 -d 3 -p cbr -e 1000 -c 2 -i 13 -a 2 -x {1.0 6.0 13 ------- null}
h -t 0.204 -s 1 -d 3 -p cbr -e 1000 -c 2 -i 13 -a 2 -x {1.0 6.0 -1 ------- null}
r -t 0.20408 -s 3 -d 4 -p cbr -e 1000 -c 2 -i 10 -a 2 -x {1.0 6.0 10 ------- null}
+ -t 0.20408 -s 4 -d 6 -p cbr -e 1000 -c 2 -i 10 -a 2 -x {1.0 6.0 10 ------- null}
- -t 0.20408 -s 4 -d 6 -p cbr -e 1000 -c 2 -i 10 -a 2 -x {1.0 6.0 10 ------- null}
h -t 0.20408 -s 4 -d 6 -p cbr -e 1000 -c 2 -i 10 -a 2 -x {1.0 6.0 -1 ------- null}
r -t 0.20608 -s 1 -d 3 -p cbr -e 1000 -c 2 -i 12 -a 2 -x {1.0 6.0 12 ------- null}
+ -t 0.20608 -s 3 -d 4 -p cbr -e 1000 -c 2 -i 12 -a 2 -x {1.0 6.0 12 ------- null}
- -t 0.20608 -s 3 -d 4 -p cbr -e 1000 -c 2 -i 12 -a 2 -x {1.0 6.0 12 ------- null}
h -t 0.20608 -s 3 -d 4 -p cbr -e 1000 -c 2 -i 12 -a 2 -x {1.0 6.0 -1 ------- null}
r -t 0.20616 -s 4 -d 6 -p cbr -e 1000 -c 2 -i 9 -a 2 -x {1.0 6.0 9 ------- null}
+ -t 0.212 -s 1 -d 3 -p cbr -e 1000 -c 2 -i 14 -a 2 -x {1.0 6.0 14 ------- null}
- -t 0.212 -s 1 -d 3 -p cbr -e 1000 -c 2 -i 14 -a 2 -x {1.0 6.0 14 ------- null}
h -t 0.212 -s 1 -d 3 -p cbr -e 1000 -c 2 -i 14 -a 2 -x {1.0 6.0 -1 ------- null}
r -t 0.21208 -s 3 -d 4 -p cbr -e 1000 -c 2 -i 11 -a 2 -x {1.0 6.0 11 ------- null}
+ -t 0.21208 -s 4 -d 6 -p cbr -e 1000 -c 2 -i 11 -a 2 -x {1.0 6.0 11 ------- null}
- -t 0.21208 -s 4 -d 6 -p cbr -e 1000 -c 2 -i 11 -a 2 -x {1.0 6.0 11 ------- null}
h -t 0.21208 -s 4 -d 6 -p cbr -e 1000 -c 2 -i 11 -a 2 -x {1.0 6.0 -1 ------- null}
r -t 0.21408 -s 1 -d 3 -p cbr -e 1000 -c 2 -i 13 -a 2 -x {1.0 6.0 13 ------- null}
+ -t 0.21408 -s 3 -d 4 -p cbr -e 1000 -c 2 -i 13 -a 2 -x {1.0 6.0 13 ------- null}
- -t 0.21408 -s 3 -d 4 -p cbr -e 1000 -c 2 -i 13 -a 2 -x {1.0 6.0 13 ------- null}
h -t 0.21408 -s 3 -d 4 -p cbr -e 1000 -c 2 -i 13 -a 2 -x {1.0 6.0 -1 ------- null}
r -t 0.21416 -s 4 -d 6 -p cbr -e 1000 -c 2 -i 10 -a 2 -x {1.0 6.0 10 ------- null}
+ -t 0.22 -s 1 -d 3 -p cbr -e 1000 -c 2 -i 15 -a 2 -x {1.0 6.0 15 ------- null}
- -t 0.22 -s 1 -d 3 -p cbr -e 1000 -c 2 -i 15 -a 2 -x {1.0 6.0 15 ------- null}
h -t 0.22 -s 1 -d 3 -p cbr -e 1000 -c 2 -i 15 -a 2 -x {1.0 6.0 -1 ------- null}
r -t 0.22008 -s 3 -d 4 -p cbr -e 1000 -c 2 -i 12 -a 2 -x {1.0 6.0 12 ------- null}
+ -t 0.22008 -s 4 -d 6 -p cbr -e 1000 -c 2 -i 12 -a 2 -x {1.0 6.0 12 ------- null}
- -t 0.22008 -s 4 -d 6 -p cbr -e 1000 -c 2 -i 12 -a 2 -x {1.0 6.0 12 ------- null}
h -t 0.22008 -s 4 -d 6 -p cbr -e 1000 -c 2 -i 12 -a 2 -x {1.0 6.0 -1 ------- null}
r -t 0.22208 -s 1 -d 3 -p cbr -e 1000 -c 2 -i 14 -a 2 -x {1.0 6.0 14 ------- null}
+ -t 0.22208 -s 3 -d 4 -p cbr -e 1000 -c 2 -i 14 -a 2 -x {1.0 6.0 14 ------- null}
- -t 0.22208 -s 3 -d 4 -p cbr -e 1000 -c 2 -i 14 -a 2 -x {1.0 6.0 14 ------- null}
h -t 0.22208 -s 3 -d 4 -p cbr -e 1000 -c 2 -i 14 -a 2 -x {1.0 6.0 -1 ------- null}
r -t 0.22216 -s 4 -d 6 -p cbr -e 1000 -c 2 -i 11 -a 2 -x {1.0 6.0 11 ------- null}
+ -t 0.228 -s 1 -d 3 -p cbr -e 1000 -c 2 -i 16 -a 2 -x {1.0 6.0 16 ------- null}
- -t 0.228 -s 1 -d 3 -p cbr -e 1000 -c 2 -i 16 -a 2 -x {1.0 6.0 16 ------- null}
h -t 0.228 -s 1 -d 3 -p cbr -e 1000 -c 2 -i 16 -a 2 -x {1.0 6.0 -1 ------- null}
r -t 0.22808 -s 3 -d 4 -p cbr -e 1000 -c 2 -i 13 -a 2 -x {1.0 6.0 13 ------- null}
+ -t 0.22808 -s 4 -d 6 -p cbr -e 1000 -c 2 -i 13 -a 2 -x {1.0 6.0 13 ------- null}
- -t 0.22808 -s 4 -d 6 -p cbr -e 1000 -c 2 -i 13 -a 2 -x {1.0 6.0 13 ------- null}
h -t 0.22808 -s 4 -d 6 -p cbr -e 1000 -c 2 -i 13 -a 2 -x {1.0 6.0 -1 ------- null}
r -t 0.23008 -s 1 -d 3 -p cbr -e 1000 -c 2 -i 15 -a 2 -x {1.0 6.0 15 ------- null}
+ -t 0.23008 -s 3 -d 4 -p cbr -e 1000 -c 2 -i 15 -a 2 -x {1.0 6.0 15 ------- null}
- -t 0.23008 -s 3 -d 4 -p cbr -e 1000 -c 2 -i 15 -a 2 -x {1.0 6.0 15 ------- null}
h -t 0.23008 -s 3 -d 4 -p cbr -e 1000 -c 2 -i 15 -a 2 -x {1.0 6.0 -1 ------- null}
r -t 0.23016 -s 4 -d 6 -p cbr -e 1000 -c 2 -i 12 -a 2 -x {1.0 6.0 12 ------- null}
+ -t 0.236 -s 1 -d 3 -p cbr -e 1000 -c 2 -i 17 -a 2 -x {1.0 6.0 17 ------- null}
- -t 0.236 -s 1 -d 3 -p cbr -e 1000 -c 2 -i 17 -a 2 -x {1.0 6.0 17 ------- null}
h -t 0.236 -s 1 -d 3 -p cbr -e 1000 -c 2 -i 17 -a 2 -x {1.0 6.0 -1 ------- null}
r -t 0.23608 -s 3 -d 4 -p cbr -e 1000 -c 2 -i 14 -a 2 -x {1.0 6.0 14 ------- null}
+ -t 0.23608 -s 4 -d 6 -p cbr -e 1000 -c 2 -i 14 -a 2 -x {1.0 6.0 14 ------- null}
- -t 0.23608 -s 4 -d 6 -p cbr -e 1000 -c 2 -i 14 -a 2 -x {1.0 6.0 14 ------- null}
h -t 0.23608 -s 4 -d 6 -p cbr -e 1000 -c 2 -i 14 -a 2 -x {1.0 6.0 -1 ------- null}
r -t 0.23808 -s 1 -d 3 -p cbr -e 1000 -c 2 -i 16 -a 2 -x {1.0 6.0 16 ------- null}
+ -t 0.23808 -s 3 -d 4 -p cbr -e 1000 -c 2 -i 16 -a 2 -x {1.0 6.0 16 ------- null}
- -t 0.23808 -s 3 -d 4 -p cbr -e 1000 -c 2 -i 16 -a 2 -x {1.0 6.0 16 ------- null}
h -t 0.23808 -s 3 -d 4 -p cbr -e 1000 -c 2 -i 16 -a 2 -x {1.0 6.0 -1 ------- null}
r -t 0.23816 -s 4 -d 6 -p cbr -e 1000 -c 2 -i 13 -a 2 -x {1.0 6.0 13 ------- null}
+ -t 0.244 -s 1 -d 3 -p cbr -e 1000 -c 2 -i 18 -a 2 -x {1.0 6.0 18 ------- null}
- -t 0.244 -s 1 -d 3 -p cbr -e 1000 -c 2 -i 18 -a 2 -x {1.0 6.0 18 ------- null}
h -t 0.244 -s 1 -d 3 -p cbr -e 1000 -c 2 -i 18 -a 2 -x {1.0 6.0 -1 ------- null}
r -t 0.24408 -s 3 -d 4 -p cbr -e 1000 -c 2 -i 15 -a 2 -x {1.0 6.0 15 ------- null}
+ -t 0.24408 -s 4 -d 6 -p cbr -e 1000 -c 2 -i 15 -a 2 -x {1.0 6.0 15 ------- null}
- -t 0.24408 -s 4 -d 6 -p cbr -e 1000 -c 2 -i 15 -a 2 -x {1.0 6.0 15 ------- null}
h -t 0.24408 -s 4 -d 6 -p cbr -e 1000 -c 2 -i 15 -a 2 -x {1.0 6.0 -1 ------- null}
r -t 0.24608 -s 1 -d 3 -p cbr -e 1000 -c 2 -i 17 -a 2 -x {1.0 6.0 17 ------- null}
+ -t 0.24608 -s 3 -d 4 -p cbr -e 1000 -c 2 -i 17 -a 2 -x {1.0 6.0 17 ------- null}
- -t 0.24608 -s 3 -d 4 -p cbr -e 1000 -c 2 -i 17 -a 2 -x {1.0 6.0 17 ------- null}
h -t 0.24608 -s 3 -d 4 -p cbr -e 1000 -c 2 -i 17 -a 2 -x {1.0 6.0 -1 ------- null}
r -t 0.24616 -s 4 -d 6 -p cbr -e 1000 -c 2 -i 14 -a 2 -x {1.0 6.0 14 ------- null}
+ -t 0.252 -s 1 -d 3 -p cbr -e 1000 -c 2 -i 19 -a 2 -x {1.0 6.0 19 ------- null}
- -t 0.252 -s 1 -d 3 -p cbr -e 1000 -c 2 -i 19 -a 2 -x {1.0 6.0 19 ------- null}
h -t 0.252 -s 1 -d 3 -p cbr -e 1000 -c 2 -i 19 -a 2 -x {1.0 6.0 -1 ------- null}
r -t 0.25208 -s 3 -d 4 -p cbr -e 1000 -c 2 -i 16 -a 2 -x {1.0 6.0 16 ------- null}
+ -t 0.25208 -s 4 -d 6 -p cbr -e 1000 -c 2 -i 16 -a 2 -x {1.0 6.0 16 ------- null}
- -t 0.25208 -s 4 -d 6 -p cbr -e 1000 -c 2 -i 16 -a 2 -x {1.0 6.0 16 ------- null}
h -t 0.25208 -s 4 -d 6 -p cbr -e 1000 -c 2 -i 16 -a 2 -x {1.0 6.0 -1 ------- null}
r -t 0.25408 -s 1 -d 3 -p cbr -e 1000 -c 2 -i 18 -a 2 -x {1.0 6.0 18 ------- null}
+ -t 0.25408 -s 3 -d 4 -p cbr -e 1000 -c 2 -i 18 -a 2 -x {1.0 6.0 18 ------- null}
- -t 0.25408 -s 3 -d 4 -p cbr -e 1000 -c 2 -i 18 -a 2 -x {1.0 6.0 18 ------- null}
h -t 0.25408 -s 3 -d 4 -p cbr -e 1000 -c 2 -i 18 -a 2 -x {1.0 6.0 -1 ------- null}
r -t 0.25416 -s 4 -d 6 -p cbr -e 1000 -c 2 -i 15 -a 2 -x {1.0 6.0 15 ------- null}
+ -t 0.26 -s 1 -d 3 -p cbr -e 1000 -c 2 -i 20 -a 2 -x {1.0 6.0 20 ------- null}
- -t 0.26 -s 1 -d 3 -p cbr -e 1000 -c 2 -i 20 -a 2 -x {1.0 6.0 20 ------- null}
h -t 0.26 -s 1 -d 3 -p cbr -e 1000 -c 2 -i 20 -a 2 -x {1.0 6.0 -1 ------- null}
r -t 0.26008 -s 3 -d 4 -p cbr -e 1000 -c 2 -i 17 -a 2 -x {1.0 6.0 17 ------- null}
+ -t 0.26008 -s 4 -d 6 -p cbr -e 1000 -c 2 -i 17 -a 2 -x {1.0 6.0 17 ------- null}
- -t 0.26008 -s 4 -d 6 -p cbr -e 1000 -c 2 -i 17 -a 2 -x {1.0 6.0 17 ------- null}
h -t 0.26008 -s 4 -d 6 -p cbr -e 1000 -c 2 -i 17 -a 2 -x {1.0 6.0 -1 ------- null}
r -t 0.26208 -s 1 -d 3 -p cbr -e 1000 -c 2 -i 19 -a 2 -x {1.0 6.0 19 ------- null}
+ -t 0.26208 -s 3 -d 4 -p cbr -e 1000 -c 2 -i 19 -a 2 -x {1.0 6.0 19 ------- null}
- -t 0.26208 -s 3 -d 4 -p cbr -e 1000 -c 2 -i 19 -a 2 -x {1.0 6.0 19 ------- null}
h -t 0.26208 -s 3 -d 4 -p cbr -e 1000 -c 2 -i 19 -a 2 -x {1.0 6.0 -1 ------- null}
r -t 0.26216 -s 4 -d 6 -p cbr -e 1000 -c 2 -i 16 -a 2 -x {1.0 6.0 16 ------- null}
+ -t 0.268 -s 1 -d 3 -p cbr -e 1000 -c 2 -i 21 -a 2 -x {1.0 6.0 21 ------- null}
- -t 0.268 -s 1 -d 3 -p cbr -e 1000 -c 2 -i 21 -a 2 -x {1.0 6.0 21 ------- null}
h -t 0.268 -s 1 -d 3 -p cbr -e 1000 -c 2 -i 21 -a 2 -x {1.0 6.0 -1 ------- null}
r -t 0.26808 -s 3 -d 4 -p cbr -e 1000 -c 2 -i 18 -a 2 -x {1.0 6.0 18 ------- null}
+ -t 0.26808 -s 4 -d 6 -p cbr -e 1000 -c 2 -i 18 -a 2 -x {1.0 6.0 18 ------- null}
- -t 0.26808 -s 4 -d 6 -p cbr -e 1000 -c 2 -i 18 -a 2 -x {1.0 6.0 18 ------- null}
h -t 0.26808 -s 4 -d 6 -p cbr -e 1000 -c 2 -i 18 -a 2 -x {1.0 6.0 -1 ------- null}
r -t 0.27008 -s 1 -d 3 -p cbr -e 1000 -c 2 -i 20 -a 2 -x {1.0 6.0 20 ------- null}
+ -t 0.27008 -s 3 -d 4 -p cbr -e 1000 -c 2 -i 20 -a 2 -x {1.0 6.0 20 ------- null}
- -t 0.27008 -s 3 -d 4 -p cbr -e 1000 -c 2 -i 20 -a 2 -x {1.0 6.0 20 ------- null}
h -t 0.27008 -s 3 -d 4 -p cbr -e 1000 -c 2 -i 20 -a 2 -x {1.0 6.0 -1 ------- null}
r -t 0.27016 -s 4 -d 6 -p cbr -e 1000 -c 2 -i 17 -a 2 -x {1.0 6.0 17 ------- null}
+ -t 0.276 -s 1 -d 3 -p cbr -e 1000 -c 2 -i 22 -a 2 -x {1.0 6.0 22 ------- null}
- -t 0.276 -s 1 -d 3 -p cbr -e 1000 -c 2 -i 22 -a 2 -x {1.0 6.0 22 ------- null}
h -t 0.276 -s 1 -d 3 -p cbr -e 1000 -c 2 -i 22 -a 2 -x {1.0 6.0 -1 ------- null}
r -t 0.27608 -s 3 -d 4 -p cbr -e 1000 -c 2 -i 19 -a 2 -x {1.0 6.0 19 ------- null}
+ -t 0.27608 -s 4 -d 6 -p cbr -e 1000 -c 2 -i 19 -a 2 -x {1.0 6.0 19 ------- null}
- -t 0.27608 -s 4 -d 6 -p cbr -e 1000 -c 2 -i 19 -a 2 -x {1.0 6.0 19 ------- null}
h -t 0.27608 -s 4 -d 6 -p cbr -e 1000 -c 2 -i 19 -a 2 -x {1.0 6.0 -1 ------- null}
r -t 0.27808 -s 1 -d 3 -p cbr -e 1000 -c 2 -i 21 -a 2 -x {1.0 6.0 21 ------- null}
+ -t 0.27808 -s 3 -d 4 -p cbr -e 1000 -c 2 -i 21 -a 2 -x {1.0 6.0 21 ------- null}
- -t 0.27808 -s 3 -d 4 -p cbr -e 1000 -c 2 -i 21 -a 2 -x {1.0 6.0 21 ------- null}
h -t 0.27808 -s 3 -d 4 -p cbr -e 1000 -c 2 -i 21 -a 2 -x {1.0 6.0 -1 ------- null}
r -t 0.27816 -s 4 -d 6 -p cbr -e 1000 -c 2 -i 18 -a 2 -x {1.0 6.0 18 ------- null}
+ -t 0.284 -s 1 -d 3 -p cbr -e 1000 -c 2 -i 23 -a 2 -x {1.0 6.0 23 ------- null}
- -t 0.284 -s 1 -d 3 -p cbr -e 1000 -c 2 -i 23 -a 2 -x {1.0 6.0 23 ------- null}
h -t 0.284 -s 1 -d 3 -p cbr -e 1000 -c 2 -i 23 -a 2 -x {1.0 6.0 -1 ------- null}
r -t 0.28408 -s 3 -d 4 -p cbr -e 1000 -c 2 -i 20 -a 2 -x {1.0 6.0 20 ------- null}
+ -t 0.28408 -s 4 -d 6 -p cbr -e 1000 -c 2 -i 20 -a 2 -x {1.0 6.0 20 ------- null}
- -t 0.28408 -s 4 -d 6 -p cbr -e 1000 -c 2 -i 20 -a 2 -x {1.0 6.0 20 ------- null}
h -t 0.28408 -s 4 -d 6 -p cbr -e 1000 -c 2 -i 20 -a 2 -x {1.0 6.0 -1 ------- null}
r -t 0.28608 -s 1 -d 3 -p cbr -e 1000 -c 2 -i 22 -a 2 -x {1.0 6.0 22 ------- null}
+ -t 0.28608 -s 3 -d 4 -p cbr -e 1000 -c 2 -i 22 -a 2 -x {1.0 6.0 22 ------- null}
- -t 0.28608 -s 3 -d 4 -p cbr -e 1000 -c 2 -i 22 -a 2 -x {1.0 6.0 22 ------- null}
h -t 0.28608 -s 3 -d 4 -p cbr -e 1000 -c 2 -i 22 -a 2 -x {1.0 6.0 -1 ------- null}
r -t 0.28616 -s 4 -d 6 -p cbr -e 1000 -c 2 -i 19 -a 2 -x {1.0 6.0 19 ------- null}
+ -t 0.292 -s 1 -d 3 -p cbr -e 1000 -c 2 -i 24 -a 2 -x {1.0 6.0 24 ------- null}
- -t 0.292 -s 1 -d 3 -p cbr -e 1000 -c 2 -i 24 -a 2 -x {1.0 6.0 24 ------- null}
h -t 0.292 -s 1 -d 3 -p cbr -e 1000 -c 2 -i 24 -a 2 -x {1.0 6.0 -1 ------- null}
r -t 0.29208 -s 3 -d 4 -p cbr -e 1000 -c 2 -i 21 -a 2 -x {1.0 6.0 21 ------- null}
+ -t 0.29208 -s 4 -d 6 -p cbr -e 1000 -c 2 -i 21 -a 2 -x {1.0 6.0 21 ------- null}
- -t 0.29208 -s 4 -d 6 -p cbr -e 1000 -c 2 -i 21 -a 2 -x {1.0 6.0 21 ------- null}
h -t 0.29208 -s 4 -d 6 -p cbr -e 1000 -c 2 -i 21 -a 2 -x {1.0 6.0 -1 ------- null}
r -t 0.29408 -s 1 -d 3 -p cbr -e 1000 -c 2 -i 23 -a 2 -x {1.0 6.0 23 ------- null}
+ -t 0.29408 -s 3 -d 4 -p cbr -e 1000 -c 2 -i 23 -a 2 -x {1.0 6.0 23 ------- null}
- -t 0.29408 -s 3 -d 4 -p cbr -e 1000 -c 2 -i 23 -a 2 -x {1.0 6.0 23 ------- null}
h -t 0.29408 -s 3 -d 4 -p cbr -e 1000 -c 2 -i 23 -a 2 -x {1.0 6.0 -1 ------- null}
r -t 0.29416 -s 4 -d 6 -p cbr -e 1000 -c 2 -i 20 -a 2 -x {1.0 6.0 20 ------- null}
+ -t 0.3 -s 1 -d 3 -p cbr -e 1000 -c 2 -i 25 -a 2 -x {1.0 6.0 25 ------- null}
- -t 0.3 -s 1 -d 3 -p cbr -e 1000 -c 2 -i 25 -a 2 -x {1.0 6.0 25 ------- null}
h -t 0.3 -s 1 -d 3 -p cbr -e 1000 -c 2 -i 25 -a 2 -x {1.0 6.0 -1 ------- null}
r -t 0.30008 -s 3 -d 4 -p cbr -e 1000 -c 2 -i 22 -a 2 -x {1.0 6.0 22 ------- null}
+ -t 0.30008 -s 4 -d 6 -p cbr -e 1000 -c 2 -i 22 -a 2 -x {1.0 6.0 22 ------- null}
- -t 0.30008 -s 4 -d 6 -p cbr -e 1000 -c 2 -i 22 -a 2 -x {1.0 6.0 22 ------- null}
h -t 0.30008 -s 4 -d 6 -p cbr -e 1000 -c 2 -i 22 -a 2 -x {1.0 6.0 -1 ------- null}
r -t 0.30208 -s 1 -d 3 -p cbr -e 1000 -c 2 -i 24 -a 2 -x {1.0 6.0 24 ------- null}
+ -t 0.30208 -s 3 -d 4 -p cbr -e 1000 -c 2 -i 24 -a 2 -x {1.0 6.0 24 ------- null}
- -t 0.30208 -s 3 -d 4 -p cbr -e 1000 -c 2 -i 24 -a 2 -x {1.0 6.0 24 ------- null}
h -t 0.30208 -s 3 -d 4 -p cbr -e 1000 -c 2 -i 24 -a 2 -x {1.0 6.0 -1 ------- null}
r -t 0.30216 -s 4 -d 6 -p cbr -e 1000 -c 2 -i 21 -a 2 -x {1.0 6.0 21 ------- null}
+ -t 0.308 -s 1 -d 3 -p cbr -e 1000 -c 2 -i 26 -a 2 -x {1.0 6.0 26 ------- null}
- -t 0.308 -s 1 -d 3 -p cbr -e 1000 -c 2 -i 26 -a 2 -x {1.0 6.0 26 ------- null}
h -t 0.308 -s 1 -d 3 -p cbr -e 1000 -c 2 -i 26 -a 2 -x {1.0 6.0 -1 ------- null}
r -t 0.30808 -s 3 -d 4 -p cbr -e 1000 -c 2 -i 23 -a 2 -x {1.0 6.0 23 ------- null}
+ -t 0.30808 -s 4 -d 6 -p cbr -e 1000 -c 2 -i 23 -a 2 -x {1.0 6.0 23 ------- null}
- -t 0.30808 -s 4 -d 6 -p cbr -e 1000 -c 2 -i 23 -a 2 -x {1.0 6.0 23 ------- null}
h -t 0.30808 -s 4 -d 6 -p cbr -e 1000 -c 2 -i 23 -a 2 -x {1.0 6.0 -1 ------- null}
r -t 0.31008 -s 1 -d 3 -p cbr -e 1000 -c 2 -i 25 -a 2 -x {1.0 6.0 25 ------- null}
+ -t 0.31008 -s 3 -d 4 -p cbr -e 1000 -c 2 -i 25 -a 2 -x {1.0 6.0 25 ------- null}
- -t 0.31008 -s 3 -d 4 -p cbr -e 1000 -c 2 -i 25 -a 2 -x {1.0 6.0 25 ------- null}
h -t 0.31008 -s 3 -d 4 -p cbr -e 1000 -c 2 -i 25 -a 2 -x {1.0 6.0 -1 ------- null}
r -t 0.31016 -s 4 -d 6 -p cbr -e 1000 -c 2 -i 22 -a 2 -x {1.0 6.0 22 ------- null}
+ -t 0.316 -s 1 -d 3 -p cbr -e 1000 -c 2 -i 27 -a 2 -x {1.0 6.0 27 ------- null}
- -t 0.316 -s 1 -d 3 -p cbr -e 1000 -c 2 -i 27 -a 2 -x {1.0 6.0 27 ------- null}
h -t 0.316 -s 1 -d 3 -p cbr -e 1000 -c 2 -i 27 -a 2 -x {1.0 6.0 -1 ------- null}
r -t 0.31608 -s 3 -d 4 -p cbr -e 1000 -c 2 -i 24 -a 2 -x {1.0 6.0 24 ------- null}
+ -t 0.31608 -s 4 -d 6 -p cbr -e 1000 -c 2 -i 24 -a 2 -x {1.0 6.0 24 ------- null}
- -t 0.31608 -s 4 -d 6 -p cbr -e 1000 -c 2 -i 24 -a 2 -x {1.0 6.0 24 ------- null}
h -t 0.31608 -s 4 -d 6 -p cbr -e 1000 -c 2 -i 24 -a 2 -x {1.0 6.0 -1 ------- null}
r -t 0.31808 -s 1 -d 3 -p cbr -e 1000 -c 2 -i 26 -a 2 -x {1.0 6.0 26 ------- null}
+ -t 0.31808 -s 3 -d 4 -p cbr -e 1000 -c 2 -i 26 -a 2 -x {1.0 6.0 26 ------- null}
- -t 0.31808 -s 3 -d 4 -p cbr -e 1000 -c 2 -i 26 -a 2 -x {1.0 6.0 26 ------- null}
h -t 0.31808 -s 3 -d 4 -p cbr -e 1000 -c 2 -i 26 -a 2 -x {1.0 6.0 -1 ------- null}
r -t 0.31816 -s 4 -d 6 -p cbr -e 1000 -c 2 -i 23 -a 2 -x {1.0 6.0 23 ------- null}
+ -t 0.324 -s 1 -d 3 -p cbr -e 1000 -c 2 -i 28 -a 2 -x {1.0 6.0 28 ------- null}
- -t 0.324 -s 1 -d 3 -p cbr -e 1000 -c 2 -i 28 -a 2 -x {1.0 6.0 28 ------- null}
h -t 0.324 -s 1 -d 3 -p cbr -e 1000 -c 2 -i 28 -a 2 -x {1.0 6.0 -1 ------- null}
r -t 0.32408 -s 3 -d 4 -p cbr -e 1000 -c 2 -i 25 -a 2 -x {1.0 6.0 25 ------- null}
+ -t 0.32408 -s 4 -d 6 -p cbr -e 1000 -c 2 -i 25 -a 2 -x {1.0 6.0 25 ------- null}
- -t 0.32408 -s 4 -d 6 -p cbr -e 1000 -c 2 -i 25 -a 2 -x {1.0 6.0 25 ------- null}
h -t 0.32408 -s 4 -d 6 -p cbr -e 1000 -c 2 -i 25 -a 2 -x {1.0 6.0 -1 ------- null}
r -t 0.32608 -s 1 -d 3 -p cbr -e 1000 -c 2 -i 27 -a 2 -x {1.0 6.0 27 ------- null}
+ -t 0.32608 -s 3 -d 4 -p cbr -e 1000 -c 2 -i 27 -a 2 -x {1.0 6.0 27 ------- null}
- -t 0.32608 -s 3 -d 4 -p cbr -e 1000 -c 2 -i 27 -a 2 -x {1.0 6.0 27 ------- null}
h -t 0.32608 -s 3 -d 4 -p cbr -e 1000 -c 2 -i 27 -a 2 -x {1.0 6.0 -1 ------- null}
r -t 0.32616 -s 4 -d 6 -p cbr -e 1000 -c 2 -i 24 -a 2 -x {1.0 6.0 24 ------- null}
+ -t 0.332 -s 1 -d 3 -p cbr -e 1000 -c 2 -i 29 -a 2 -x {1.0 6.0 29 ------- null}
- -t 0.332 -s 1 -d 3 -p cbr -e 1000 -c 2 -i 29 -a 2 -x {1.0 6.0 29 ------- null}
h -t 0.332 -s 1 -d 3 -p cbr -e 1000 -c 2 -i 29 -a 2 -x {1.0 6.0 -1 ------- null}
r -t 0.33208 -s 3 -d 4 -p cbr -e 1000 -c 2 -i 26 -a 2 -x {1.0 6.0 26 ------- null}
+ -t 0.33208 -s 4 -d 6 -p cbr -e 1000 -c 2 -i 26 -a 2 -x {1.0 6.0 26 ------- null}
- -t 0.33208 -s 4 -d 6 -p cbr -e 1000 -c 2 -i 26 -a 2 -x {1.0 6.0 26 ------- null}
h -t 0.33208 -s 4 -d 6 -p cbr -e 1000 -c 2 -i 26 -a 2 -x {1.0 6.0 -1 ------- null}
r -t 0.33408 -s 1 -d 3 -p cbr -e 1000 -c 2 -i 28 -a 2 -x {1.0 6.0 28 ------- null}
+ -t 0.33408 -s 3 -d 4 -p cbr -e 1000 -c 2 -i 28 -a 2 -x {1.0 6.0 28 ------- null}
- -t 0.33408 -s 3 -d 4 -p cbr -e 1000 -c 2 -i 28 -a 2 -x {1.0 6.0 28 ------- null}
h -t 0.33408 -s 3 -d 4 -p cbr -e 1000 -c 2 -i 28 -a 2 -x {1.0 6.0 -1 ------- null}
r -t 0.33416 -s 4 -d 6 -p cbr -e 1000 -c 2 -i 25 -a 2 -x {1.0 6.0 25 ------- null}
+ -t 0.34 -s 1 -d 3 -p cbr -e 1000 -c 2 -i 30 -a 2 -x {1.0 6.0 30 ------- null}
- -t 0.34 -s 1 -d 3 -p cbr -e 1000 -c 2 -i 30 -a 2 -x {1.0 6.0 30 ------- null}
h -t 0.34 -s 1 -d 3 -p cbr -e 1000 -c 2 -i 30 -a 2 -x {1.0 6.0 -1 ------- null}
r -t 0.34008 -s 3 -d 4 -p cbr -e 1000 -c 2 -i 27 -a 2 -x {1.0 6.0 27 ------- null}
+ -t 0.34008 -s 4 -d 6 -p cbr -e 1000 -c 2 -i 27 -a 2 -x {1.0 6.0 27 ------- null}
- -t 0.34008 -s 4 -d 6 -p cbr -e 1000 -c 2 -i 27 -a 2 -x {1.0 6.0 27 ------- null}
h -t 0.34008 -s 4 -d 6 -p cbr -e 1000 -c 2 -i 27 -a 2 -x {1.0 6.0 -1 ------- null}
r -t 0.34208 -s 1 -d 3 -p cbr -e 1000 -c 2 -i 29 -a 2 -x {1.0 6.0 29 ------- null}
+ -t 0.34208 -s 3 -d 4 -p cbr -e 1000 -c 2 -i 29 -a 2 -x {1.0 6.0 29 ------- null}
- -t 0.34208 -s 3 -d 4 -p cbr -e 1000 -c 2 -i 29 -a 2 -x {1.0 6.0 29 ------- null}
h -t 0.34208 -s 3 -d 4 -p cbr -e 1000 -c 2 -i 29 -a 2 -x {1.0 6.0 -1 ------- null}
r -t 0.34216 -s 4 -d 6 -p cbr -e 1000 -c 2 -i 26 -a 2 -x {1.0 6.0 26 ------- null}
+ -t 0.348 -s 1 -d 3 -p cbr -e 1000 -c 2 -i 31 -a 2 -x {1.0 6.0 31 ------- null}
- -t 0.348 -s 1 -d 3 -p cbr -e 1000 -c 2 -i 31 -a 2 -x {1.0 6.0 31 ------- null}