s 1.000075000 _15_ MAC  --- 0 AODV 106 [0 ffffffff f 800] ------- [15:255 -1:255 30 0] [0x2 1 1 [16 0] [15 4]] (REQUEST)
s 1.000075000 _22_ MAC  --- 0 AODV 106 [0 ffffffff 16 800] ------- [22:255 -1:255 30 0] [0x2 1 1 [23 0] [22 4]] (REQUEST)
s 1.000155000 _38_ MAC  --- 0 AODV 106 [0 ffffffff 26 800] ------- [38:255 -1:255 30 0] [0x2 1 1 [39 0] [38 4]] (REQUEST)
s 1.000195000 _7_ MAC  --- 0 AODV 106 [0 ffffffff 7 800] ------- [7:255 -1:255 30 0] [0x2 1 1 [8 0] [7 4]] (REQUEST)
s 1.000275000 _0_ MAC  --- 0 AODV 106 [0 ffffffff 0 800] ------- [0:255 -1:255 30 0] [0x2 1 1 [1 0] [0 4]] (REQUEST)
s 1.000375000 _31_ MAC  --- 0 AODV 106 [0 ffffffff 1f 800] ------- [31:255 -1:255 30 0] [0x2 1 1 [32 0] [31 4]] (REQUEST)
r 1.000923447 _16_ MAC  --- 0 AODV 48 [0 ffffffff f 800] ------- [15:255 -1:255 30 0] [0x2 1 1 [16 0] [15 4]] (REQUEST)
r 1.000923487 _14_ MAC  --- 0 AODV 48 [0 ffffffff f 800] ------- [15:255 -1:255 30 0] [0x2 1 1 [16 0] [15 4]] (REQUEST)
r 1.000923580 _23_ MAC  --- 0 AODV 48 [0 ffffffff 16 800] ------- [22:255 -1:255 30 0] [0x2 1 1 [23 0] [22 4]] (REQUEST)
r 1.000923673 _21_ MAC  --- 0 AODV 48 [0 ffffffff 16 800] ------- [22:255 -1:255 30 0] [0x2 1 1 [23 0] [22 4]] (REQUEST)
r 1.000923793 _17_ MAC  --- 0 AODV 48 [0 ffffffff f 800] ------- [15:255 -1:255 30 0] [0x2 1 1 [16 0] [15 4]] (REQUEST)
D 1.000948487 _14_ IFQ  ARP 13 tcp 40 [0 0 e 800] ------- [14:1 15:0 30 15] [0 0] 0 0
D 1.000948487 _14_ IFQ  ARP 50 cbr 1020 [0 0 e 800] ------- [14:3 15:2 30 15] [0] 0 0
D 1.000948673 _21_ IFQ  ARP 20 tcp 40 [0 0 15 800] ------- [21:1 22:0 30 22] [0 0] 0 0
D 1.000948673 _21_ IFQ  ARP 57 cbr 1020 [0 0 15 800] ------- [21:3 22:2 30 22] [0] 0 0
r 1.001003547 _39_ MAC  --- 0 AODV 48 [0 ffffffff 26 800] ------- [38:255 -1:255 30 0] [0x2 1 1 [39 0] [38 4]] (REQUEST)
r 1.001003608 _37_ MAC  --- 0 AODV 48 [0 ffffffff 26 800] ------- [38:255 -1:255 30 0] [0x2 1 1 [39 0] [38 4]] (REQUEST)
D 1.001028608 _37_ IFQ  ARP 34 tcp 40 [0 0 25 800] ------- [37:0 38:0 30 38] [0 0] 0 0
D 1.001028608 _37_ IFQ  ARP 71 cbr 1020 [0 0 25 800] ------- [37:1 38:2 30 38] [0] 0 0
D 1.001043413 _6_ MAC  COL 0 AODV 106 [0 ffffffff 7 800] ------- [7:255 -1:255 30 0] [0x2 1 1 [8 0] [7 4]] (REQUEST)
D 1.001043547 _8_ MAC  COL 0 AODV 106 [0 ffffffff 7 800] ------- [7:255 -1:255 30 0] [0x2 1 1 [8 0] [7 4]] (REQUEST)
s 1.001063580 _23_ MAC  --- 0 ARP 86 [0 ffffffff 17 806] ------- [REQUEST 23/23 0/22]
s 1.001073608 _37_ MAC  --- 0 AODV 106 [0 ffffffff 25 800] ------- [37:255 -1:255 30 0] [0x2 1 1 [38 0] [37 4]] (REQUEST)
D 1.001123647 _1_ MAC  COL 0 AODV 106 [0 ffffffff 0 800] ------- [0:255 -1:255 30 0] [0x2 1 1 [1 0] [0 4]] (REQUEST)
D 1.001223534 _32_ MAC  COL 0 AODV 106 [0 ffffffff 1f 800] ------- [31:255 -1:255 30 0] [0x2 1 1 [32 0] [31 4]] (REQUEST)
D 1.001223567 _30_ MAC  COL 0 AODV 106 [0 ffffffff 1f 800] ------- [31:255 -1:255 30 0] [0x2 1 1 [32 0] [31 4]] (REQUEST)
s 1.001438514 _27_ MAC  --- 0 AODV 106 [0 ffffffff 1b 800] ------- [27:255 -1:255 30 0] [0x2 1 1 [28 0] [27 4]] (REQUEST)
s 1.001517413 _6_ MAC  --- 0 AODV 106 [0 ffffffff 6 800] ------- [6:255 -1:255 30 0] [0x2 1 1 [7 0] [6 4]] (REQUEST)
s 1.001637647 _1_ MAC  --- 0 AODV 106 [0 ffffffff 1 800] ------- [1:255 -1:255 30 0] [0x2 1 1 [2 0] [1 4]] (REQUEST)
s 1.001677534 _32_ MAC  --- 0 AODV 106 [0 ffffffff 20 800] ------- [32:255 -1:255 30 0] [0x2 1 1 [33 0] [32 4]] (REQUEST)
r 1.001752160 _22_ MAC  --- 0 ARP 28 [0 ffffffff 17 806] ------- [REQUEST 23/23 0/22]
r 1.001922215 _38_ MAC  --- 0 AODV 48 [0 ffffffff 25 800] ------- [37:255 -1:255 30 0] [0x2 1 1 [38 0] [37 4]] (REQUEST)
s 1.002271608 _37_ MAC  --- 0 ARP 86 [0 ffffffff 25 806] ------- [REQUEST 37/37 0/38]
D 1.002287034 _26_ MAC  COL 0 AODV 106 [0 ffffffff 1b 800] ------- [27:255 -1:255 30 0] [0x2 1 1 [28 0] [27 4]] (REQUEST)
r 1.002287067 _28_ MAC  --- 0 AODV 48 [0 ffffffff 1b 800] ------- [27:255 -1:255 30 0] [0x2 1 1 [28 0] [27 4]] (REQUEST)
r 1.002365827 _7_ MAC  --- 0 AODV 48 [0 ffffffff 6 800] ------- [6:255 -1:255 30 0] [0x2 1 1 [7 0] [6 4]] (REQUEST)
r 1.002365847 _5_ MAC  --- 0 AODV 48 [0 ffffffff 6 800] ------- [6:255 -1:255 30 0] [0x2 1 1 [7 0] [6 4]] (REQUEST)
D 1.002390847 _5_ IFQ  ARP 5 tcp 40 [0 0 5 800] ------- [5:1 6:0 30 6] [0 0] 0 0
D 1.002390847 _5_ IFQ  ARP 42 cbr 1020 [0 0 5 800] ------- [5:3 6:2 30 6] [0] 0 0
s 1.002446769 _10_ MAC  --- 0 AODV 106 [0 ffffffff a 800] ------- [10:255 -1:255 30 0] [0x2 1 1 [11 0] [10 4]] (REQUEST)
r 1.002486275 _2_ MAC  --- 0 AODV 48 [0 ffffffff 1 800] ------- [1:255 -1:255 30 0] [0x2 1 1 [2 0] [1 4]] (REQUEST)
r 1.002486294 _0_ MAC  --- 0 AODV 48 [0 ffffffff 1 800] ------- [1:255 -1:255 30 0] [0x2 1 1 [2 0] [1 4]] (REQUEST)
D 1.002511294 _0_ IFQ  ARP 0 tcp 40 [0 0 0 800] ------- [0:0 1:0 30 1] [0 0] 0 0
D 1.002511294 _0_ IFQ  ARP 37 cbr 1020 [0 0 0 800] ------- [0:1 1:2 30 1] [0] 0 0
r 1.002526068 _31_ MAC  --- 0 AODV 48 [0 ffffffff 20 800] ------- [32:255 -1:255 30 0] [0x2 1 1 [33 0] [32 4]] (REQUEST)
D 1.002526121 _33_ MAC  COL 0 AODV 106 [0 ffffffff 20 800] ------- [32:255 -1:255 30 0] [0x2 1 1 [33 0] [32 4]] (REQUEST)
D 1.002551068 _31_ IFQ  ARP 29 tcp 40 [0 0 1f 800] ------- [31:1 32:0 30 32] [0 0] 0 0
D 1.002551068 _31_ IFQ  ARP 66 cbr 1020 [0 0 1f 800] ------- [31:3 32:2 30 32] [0] 0 0
s 1.002716068 _31_ MAC  --- 0 ARP 86 [0 ffffffff 1f 806] ------- [REQUEST 31/31 0/32]
s 1.002726294 _0_ MAC  --- 0 ARP 86 [0 ffffffff 0 806] ------- [REQUEST 0/0 0/1]
s 1.002920321 _4_ MAC  --- 0 AODV 106 [0 ffffffff 4 800] ------- [4:255 -1:255 30 0] [0x2 1 1 [5 0] [4 4]] (REQUEST)
r 1.002960215 _38_ MAC  --- 0 ARP 28 [0 ffffffff 25 806] ------- [REQUEST 37/37 0/38]
s 1.003129608 _37_ MAC  --- 0 ARP 86 [0 ffffffff 25 806] ------- [REQUEST 37/37 0/38]
s 1.003141161 _35_ MAC  --- 0 AODV 106 [0 ffffffff 23 800] ------- [35:255 -1:255 30 0] [0x2 1 1 [36 0] [35 4]] (REQUEST)
r 1.003295343 _9_ MAC  --- 0 AODV 48 [0 ffffffff a 800] ------- [10:255 -1:255 30 0] [0x2 1 1 [11 0] [10 4]] (REQUEST)
r 1.003295472 _11_ MAC  --- 0 AODV 48 [0 ffffffff a 800] ------- [10:255 -1:255 30 0] [0x2 1 1 [11 0] [10 4]] (REQUEST)
D 1.003320343 _9_ IFQ  ARP 9 tcp 40 [0 0 9 800] ------- [9:1 10:0 30 10] [0 0] 0 0
D 1.003320343 _9_ IFQ  ARP 46 cbr 1020 [0 0 9 800] ------- [9:3 10:2 30 10] [0] 0 0
s 1.003375472 _11_ MAC  --- 0 ARP 86 [0 ffffffff b 806] ------- [REQUEST 11/11 0/10]
r 1.003404602 _32_ MAC  --- 0 ARP 28 [0 ffffffff 1f 806] ------- [REQUEST 31/31 0/32]
r 1.003404635 _30_ MAC  --- 0 ARP 28 [0 ffffffff 1f 806] ------- [REQUEST 31/31 0/32]
r 1.003414941 _1_ MAC  --- 0 ARP 28 [0 ffffffff 0 806] ------- [REQUEST 0/0 0/1]
s 1.003504941 _1_ MAC  --- 0 RTS 44 [52e 0 1 0] 
D 1.003506136 _3_ MAC  COL 0 AODV 106 [0 ffffffff 4 800] ------- [4:255 -1:255 30 0] [0x2 1 1 [5 0] [4 4]] (REQUEST)
s 1.003574635 _30_ MAC  --- 0 AODV 106 [0 ffffffff 1e 800] ------- [30:255 -1:255 30 0] [0x2 1 1 [31 0] [30 4]] (REQUEST)
r 1.003768795 _5_ MAC  --- 0 AODV 48 [0 ffffffff 4 800] ------- [4:255 -1:255 30 0] [0x2 1 1 [5 0] [4 4]] (REQUEST)
r 1.003818215 _38_ MAC  --- 0 ARP 28 [0 ffffffff 25 806] ------- [REQUEST 37/37 0/38]
r 1.003857588 _0_ MAC  --- 0 RTS 44 [52e 0 1 0] 
s 1.003858795 _5_ MAC  --- 0 AODV 106 [0 ffffffff 5 800] ------- [5:255 -1:255 30 0] [0x2 1 1 [6 0] [5 4]] (REQUEST)
s 1.003867588 _0_ MAC  --- 0 CTS 38 [3f4 1 0 0] 
r 1.003989434 _36_ MAC  --- 0 AODV 48 [0 ffffffff 23 800] ------- [35:255 -1:255 30 0] [0x2 1 1 [36 0] [35 4]] (REQUEST)
D 1.003989754 _34_ MAC  COL 0 AODV 106 [0 ffffffff 23 800] ------- [35:255 -1:255 30 0] [0x2 1 1 [36 0] [35 4]] (REQUEST)
r 1.004064176 _10_ MAC  --- 0 ARP 28 [0 ffffffff b 806] ------- [REQUEST 11/11 0/10]
r 1.004172235 _1_ MAC  --- 0 CTS 38 [3f4 1 0 0] 
s 1.004182235 _1_ MAC  --- 0 ARP 86 [13a 0 1 806] ------- [REPLY 1/1 0/0]
s 1.004254176 _10_ MAC  --- 0 RTS 44 [52e b a 0] 
s 1.004287608 _37_ MAC  --- 0 ARP 86 [0 ffffffff 25 806] ------- [REQUEST 37/37 0/38]
s 1.004389434 _36_ MAC  --- 0 ARP 86 [0 ffffffff 24 806] ------- [REQUEST 36/36 0/35]
r 1.004423128 _29_ MAC  --- 0 AODV 48 [0 ffffffff 1e 800] ------- [30:255 -1:255 30 0] [0x2 1 1 [31 0] [30 4]] (REQUEST)
r 1.004423201 _31_ MAC  --- 0 AODV 48 [0 ffffffff 1e 800] ------- [30:255 -1:255 30 0] [0x2 1 1 [31 0] [30 4]] (REQUEST)
D 1.004448128 _29_ IFQ  ARP 27 tcp 40 [0 0 1d 800] ------- [29:1 30:0 30 30] [0 0] 0 0
D 1.004448128 _29_ IFQ  ARP 64 cbr 1020 [0 0 1d 800] ------- [29:3 30:2 30 30] [0] 0 0
s 1.004493201 _31_ MAC  --- 0 AODV 106 [0 ffffffff 1f 800] ------- [31:255 -1:255 29 0] [0x2 2 1 [33 0] [32 4]] (REQUEST)
r 1.004606879 _11_ MAC  --- 0 RTS 44 [52e b a 0] 
s 1.004616879 _11_ MAC  --- 0 CTS 38 [3f4 a 0 0] 
r 1.004707228 _6_ MAC  --- 0 AODV 48 [0 ffffffff 5 800] ------- [5:255 -1:255 30 0] [0x2 1 1 [6 0] [5 4]] (REQUEST)
r 1.004707270 _4_ MAC  --- 0 AODV 48 [0 ffffffff 5 800] ------- [5:255 -1:255 30 0] [0x2 1 1 [6 0] [5 4]] (REQUEST)
D 1.004732270 _4_ IFQ  ARP 4 tcp 40 [0 0 4 800] ------- [4:1 5:0 30 5] [0 0] 0 0
D 1.004732270 _4_ IFQ  ARP 41 cbr 1020 [0 0 4 800] ------- [4:3 5:2 30 5] [0] 0 0
s 1.004847228 _6_ MAC  --- 0 ARP 86 [0 ffffffff 6 806] ------- [REQUEST 6/6 0/5]
r 1.004870882 _0_ MAC  --- 0 ARP 28 [13a 0 1 806] ------- [REPLY 1/1 0/0]
s 1.004880882 _0_ MAC  --- 0 ACK 38 [0 1 0 0] 
r 1.004921582 _10_ MAC  --- 0 CTS 38 [3f4 a 0 0] 
s 1.004931582 _10_ MAC  --- 0 ARP 86 [13a b a 806] ------- [REPLY 10/10 11/11]
r 1.004976215 _38_ MAC  --- 0 ARP 28 [0 ffffffff 25 806] ------- [REQUEST 37/37 0/38]
r 1.005077707 _35_ MAC  --- 0 ARP 28 [0 ffffffff 24 806] ------- [REQUEST 36/36 0/35]
s 1.005086215 _38_ MAC  --- 0 ARP 86 [0 ffffffff 26 806] ------- [REQUEST 38/38 0/37]
r 1.005185529 _1_ MAC  --- 0 ACK 38 [0 1 0 0] 
s 1.005287707 _35_ MAC  --- 0 RTS 44 [52e 24 23 0] 
r 1.005341735 _32_ MAC  --- 0 AODV 48 [0 ffffffff 1f 800] ------- [31:255 -1:255 29 0] [0x2 2 1 [33 0] [32 4]] (REQUEST)
r 1.005341768 _30_ MAC  --- 0 AODV 48 [0 ffffffff 1f 800] ------- [31:255 -1:255 29 0] [0x2 2 1 [33 0] [32 4]] (REQUEST)
s 1.005411201 _31_ MAC  --- 0 ARP 86 [0 ffffffff 1f 806] ------- [REQUEST 31/31 0/32]
r 1.005535642 _7_ MAC  --- 0 ARP 28 [0 ffffffff 6 806] ------- [REQUEST 6/6 0/5]
r 1.005535662 _5_ MAC  --- 0 ARP 28 [0 ffffffff 6 806] ------- [REQUEST 6/6 0/5]
s 1.005554882 _0_ MAC  --- 0 ARP 86 [0 ffffffff 0 806] ------- [REQUEST 0/0 0/1]
s 1.005605662 _5_ MAC  --- 0 AODV 106 [0 ffffffff 5 800] ------- [5:255 -1:255 29 0] [0x2 2 1 [7 0] [6 4]] (REQUEST)
r 1.005620285 _11_ MAC  --- 0 ARP 28 [13a b a 806] ------- [REPLY 10/10 11/11]
s 1.005630285 _11_ MAC  --- 0 ACK 38 [0 a 0 0] 
r 1.005639981 _36_ MAC  --- 0 RTS 44 [52e 24 23 0] 
s 1.005649981 _36_ MAC  --- 0 CTS 38 [3f4 23 0 0] 
r 1.005774762 _39_ MAC  --- 0 ARP 28 [0 ffffffff 26 806] ------- [REQUEST 38/38 0/37]
r 1.005774823 _37_ MAC  --- 0 ARP 28 [0 ffffffff 26 806] ------- [REQUEST 38/38 0/37]
r 1.005934988 _10_ MAC  --- 0 ACK 38 [0 a 0 0] 
s 1.005944762 _39_ MAC  --- 0 AODV 106 [0 ffffffff 27 800] ------- [39:255 -1:255 30 0] [0x2 1 1 [40 0] [39 4]] (REQUEST)
r 1.005954254 _35_ MAC  --- 0 CTS 38 [3f4 23 0 0] 
s 1.005964254 _35_ MAC  --- 0 ARP 86 [13a 24 23 806] ------- [REPLY 35/35 36/36]
s 1.006004285 _11_ MAC  --- 0 RTS 44 [5ae a b 0] 
r 1.006099735 _32_ MAC  --- 0 ARP 28 [0 ffffffff 1f 806] ------- [REQUEST 31/31 0/32]
r 1.006099768 _30_ MAC  --- 0 ARP 28 [0 ffffffff 1f 806] ------- [REQUEST 31/31 0/32]
s 1.006169201 _31_ MAC  --- 0 ARP 86 [0 ffffffff 1f 806] ------- [REQUEST 31/31 0/32]
r 1.006243529 _1_ MAC  --- 0 ARP 28 [0 ffffffff 0 806] ------- [REQUEST 0/0 0/1]
r 1.006356988 _10_ MAC  --- 0 RTS 44 [5ae a b 0] 
s 1.006366988 _10_ MAC  --- 0 CTS 38 [474 b 0 0] 
s 1.006413529 _1_ MAC  --- 0 RTS 44 [52e 0 1 0] 
r 1.006454095 _6_ MAC  --- 0 AODV 48 [0 ffffffff 5 800] ------- [5:255 -1:255 29 0] [0x2 2 1 [7 0] [6 4]] (REQUEST)
r 1.006454136 _4_ MAC  --- 0 AODV 48 [0 ffffffff 5 800] ------- [5:255 -1:255 29 0] [0x2 2 1 [7 0] [6 4]] (REQUEST)
r 1.006652527 _36_ MAC  --- 0 ARP 28 [13a 24 23 806] ------- [REPLY 35/35 36/36]
s 1.006662527 _36_ MAC  --- 0 ACK 38 [0 23 0 0] 
r 1.006671691 _11_ MAC  --- 0 CTS 38 [474 b 0 0] 
s 1.006681691 _11_ MAC  --- 0 AODV 102 [13a a b 800] ------- [11:255 10:255 30 10] [0x4 1 [11 4] 10.000000] (REPLY)
s 1.006704136 _4_ MAC  --- 0 ARP 86 [0 ffffffff 4 806] ------- [REQUEST 4/4 0/5]
r 1.006766176 _0_ MAC  --- 0 RTS 44 [52e 0 1 0] 
s 1.006776176 _0_ MAC  --- 0 CTS 38 [3f4 1 0 0] 
r 1.006793308 _38_ MAC  --- 0 AODV 48 [0 ffffffff 27 800] ------- [39:255 -1:255 30 0] [0x2 1 1 [40 0] [39 4]] (REQUEST)
r 1.006793422 _40_ MAC  --- 0 AODV 48 [0 ffffffff 27 800] ------- [39:255 -1:255 30 0] [0x2 1 1 [40 0] [39 4]] (REQUEST)
D 1.006818308 _38_ IFQ  ARP 35 tcp 40 [0 0 26 800] ------- [38:1 39:0 30 39] [0 0] 0 0
D 1.006818308 _38_ IFQ  ARP 72 cbr 1020 [0 0 26 800] ------- [38:3 39:2 30 39] [0] 0 0
r 1.006857735 _32_ MAC  --- 0 ARP 28 [0 ffffffff 1f 806] ------- [REQUEST 31/31 0/32]
r 1.006857768 _30_ MAC  --- 0 ARP 28 [0 ffffffff 1f 806] ------- [REQUEST 31/31 0/32]
r 1.006966801 _35_ MAC  --- 0 ACK 38 [0 23 0 0] 
s 1.006983308 _38_ MAC  --- 0 RTS 44 [5ae 25 26 0] 
r 1.007080823 _1_ MAC  --- 0 CTS 38 [3f4 1 0 0] 
s 1.007090823 _1_ MAC  --- 0 ARP 86 [13a 0 1 806] ------- [REPLY 1/1 0/0]
D 1.007092018 _3_ MAC  COL 0 ARP 86 [0 ffffffff 4 806] ------- [REQUEST 4/4 0/5]
r 1.007335916 _37_ MAC  --- 0 RTS 44 [5ae 25 26 0] 
s 1.007345916 _37_ MAC  --- 0 CTS 38 [474 26 0 0] 
s 1.007352495 _20_ MAC  --- 0 AODV 106 [0 ffffffff 14 800] ------- [20:255 -1:255 30 0] [0x2 1 1 [21 0] [20 4]] (REQUEST)
s 1.007372648 _28_ MAC  --- 0 AODV 106 [0 ffffffff 1c 800] ------- [28:255 -1:255 30 0] [0x2 1 1 [29 0] [28 4]] (REQUEST)
r 1.007392611 _5_ MAC  --- 0 ARP 28 [0 ffffffff 4 806] ------- [REQUEST 4/4 0/5]
s 1.007456527 _36_ MAC  --- 0 RTS 44 [5ae 23 24 0] 
r 1.007498395 _10_ MAC  --- 0 AODV 44 [13a a b 800] ------- [11:255 10:255 30 10] [0x4 1 [11 4] 10.000000] (REPLY)
s 1.007508395 _10_ MAC  --- 0 ACK 38 [0 b 0 0] 
s 1.007582136 _4_ MAC  --- 0 AODV 106 [0 ffffffff 4 800] ------- [4:255 -1:255 29 0] [0x2 2 1 [6 0] [5 4]] (REQUEST)
r 1.007650524 _38_ MAC  --- 0 CTS 38 [474 26 0 0] 
s 1.007660524 _38_ MAC  --- 0 AODV 102 [13a 25 26 800] ------- [38:255 37:255 30 37] [0x4 1 [38 6] 10.000000] (REPLY)
r 1.007779470 _0_ MAC  --- 0 ARP 28 [13a 0 1 806] ------- [REPLY 1/1 0/0]
s 1.007789470 _0_ MAC  --- 0 ACK 38 [0 1 0 0] 
r 1.007808801 _35_ MAC  --- 0 RTS 44 [5ae 23 24 0] 
r 1.007813098 _11_ MAC  --- 0 ACK 38 [0 b 0 0] 
s 1.007818801 _35_ MAC  --- 0 CTS 38 [474 24 0 0] 
r 1.008094117 _1_ MAC  --- 0 ACK 38 [0 1 0 0] 
r 1.008123074 _36_ MAC  --- 0 CTS 38 [474 24 0 0] 
s 1.008133074 _36_ MAC  --- 0 AODV 102 [13a 23 24 800] ------- [36:255 35:255 30 35] [0x4 1 [36 4] 10.000000] (REPLY)
D 1.008201055 _19_ MAC  COL 0 AODV 106 [0 ffffffff 14 800] ------- [20:255 -1:255 30 0] [0x2 1 1 [21 0] [20 4]] (REQUEST)
D 1.008201142 _21_ MAC  COL 0 AODV 106 [0 ffffffff 14 800] ------- [20:255 -1:255 30 0] [0x2 1 1 [21 0] [20 4]] (REQUEST)
r 1.008221035 _29_ MAC  --- 0 AODV 48 [0 ffffffff 1c 800] ------- [28:255 -1:255 30 0] [0x2 1 1 [29 0] [28 4]] (REQUEST)
r 1.008221201 _27_ MAC  --- 0 AODV 48 [0 ffffffff 1c 800] ------- [28:255 -1:255 30 0] [0x2 1 1 [29 0] [28 4]] (REQUEST)
D 1.008246201 _27_ IFQ  ARP 25 tcp 40 [0 0 1b 800] ------- [27:1 28:0 30 28] [0 0] 0 0
D 1.008246201 _27_ IFQ  ARP 62 cbr 1020 [0 0 1b 800] ------- [27:3 28:2 30 28] [0] 0 0
s 1.008391035 _29_ MAC  --- 0 AODV 106 [0 ffffffff 1d 800] ------- [29:255 -1:255 30 0] [0x2 1 1 [30 0] [29 4]] (REQUEST)
s 1.008403470 _0_ MAC  --- 0 AODV 106 [0 ffffffff 0 800] ------- [0:255 -1:255 29 0] [0x2 2 1 [2 0] [1 4]] (REQUEST)
r 1.008430611 _5_ MAC  --- 0 AODV 48 [0 ffffffff 4 800] ------- [4:255 -1:255 29 0] [0x2 2 1 [6 0] [5 4]] (REQUEST)
D 1.008430810 _3_ MAC  COL 0 AODV 106 [0 ffffffff 4 800] ------- [4:255 -1:255 29 0] [0x2 2 1 [6 0] [5 4]] (REQUEST)
r 1.008477131 _37_ MAC  --- 0 AODV 44 [13a 25 26 800] ------- [38:255 37:255 30 37] [0x4 1 [38 6] 10.000000] (REPLY)
s 1.008487131 _37_ MAC  --- 0 ACK 38 [0 26 0 0] 
r 1.008791739 _38_ MAC  --- 0 ACK 38 [0 26 0 0] 
s 1.008855969 _10_ MAC  --- 0 RTS 44 [58e b a 0] 
s 1.008856130 _5_ MAC  --- 0 ARP 86 [0 ffffffff 5 806] ------- [REQUEST 5/5 0/6]
r 1.008949347 _35_ MAC  --- 0 AODV 44 [13a 23 24 800] ------- [36:255 35:255 30 35] [0x4 1 [36 4] 10.000000] (REPLY)
s 1.008959347 _35_ MAC  --- 0 ACK 38 [0 24 0 0] 
s 1.009061739 _38_ MAC  --- 0 RTS 44 [52e 25 26 0] 
r 1.009208673 _11_ MAC  --- 0 RTS 44 [58e b a 0] 
s 1.009218673 _11_ MAC  --- 0 CTS 38 [454 a 0 0] 
r 1.009239422 _28_ MAC  --- 0 AODV 48 [0 ffffffff 1d 800] ------- [29:255 -1:255 30 0] [0x2 1 1 [30 0] [29 4]] (REQUEST)
r 1.009239528 _30_ MAC  --- 0 AODV 48 [0 ffffffff 1d 800] ------- [29:255 -1:255 30 0] [0x2 1 1 [30 0] [29 4]] (REQUEST)
r 1.009252117 _1_ MAC  --- 0 AODV 48 [0 ffffffff 0 800] ------- [0:255 -1:255 29 0] [0x2 2 1 [2 0] [1 4]] (REQUEST)
r 1.009263621 _36_ MAC  --- 0 ACK 38 [0 24 0 0] 
D 1.009264422 _28_ IFQ  ARP 26 tcp 40 [0 0 1c 800] ------- [28:1 29:0 30 29] [0 0] 0 0
D 1.009264422 _28_ IFQ  ARP 63 cbr 1020 [0 0 1c 800] ------- [28:3 29:2 30 29] [0] 0 0
r 1.009414346 _37_ MAC  --- 0 RTS 44 [52e 25 26 0] 
s 1.009424346 _37_ MAC  --- 0 CTS 38 [3f4 26 0 0] 
s 1.009429035 _29_ MAC  --- 0 ARP 86 [0 ffffffff 1d 806] ------- [REQUEST 29/29 0/30]
s 1.009483941 _34_ MAC  --- 0 AODV 106 [0 ffffffff 22 800] ------- [34:255 -1:255 30 0] [0x2 1 1 [35 0] [34 4]] (REQUEST)
r 1.009523376 _10_ MAC  --- 0 CTS 38 [454 a 0 0] 
s 1.009533376 _10_ MAC  --- 10 tcp 98 [13a b a 800] ------- [10:1 11:0 30 11] [0 0] 0 0
s 1.009541470 _0_ MAC  --- 0 ARP 86 [0 ffffffff 0 806] ------- [REQUEST 0/0 0/1]
r 1.009544563 _6_ MAC  --- 0 ARP 28 [0 ffffffff 5 806] ------- [REQUEST 5/5 0/6]
r 1.009544604 _4_ MAC  --- 0 ARP 28 [0 ffffffff 5 806] ------- [REQUEST 5/5 0/6]
s 1.009594130 _5_ MAC  --- 0 RTS 44 [5ae 4 5 0] 
r 1.009728954 _38_ MAC  --- 0 CTS 38 [3f4 26 0 0] 
s 1.009738954 _38_ MAC  --- 0 ARP 86 [13a 25 26 806] ------- [REPLY 38/38 37/37]
r 1.009946604 _4_ MAC  --- 0 RTS 44 [5ae 4 5 0] 
s 1.009956604 _4_ MAC  --- 0 CTS 38 [474 5 0 0] 
r 1.010117422 _28_ MAC  --- 0 ARP 28 [0 ffffffff 1d 806] ------- [REQUEST 29/29 0/30]
r 1.010117528 _30_ MAC  --- 0 ARP 28 [0 ffffffff 1d 806] ------- [REQUEST 29/29 0/30]
r 1.010230117 _1_ MAC  --- 0 ARP 28 [0 ffffffff 0 806] ------- [REQUEST 0/0 0/1]
s 1.010247528 _30_ MAC  --- 0 ARP 86 [0 ffffffff 1e 806] ------- [REQUEST 30/30 0/29]
r 1.010261079 _5_ MAC  --- 0 CTS 38 [474 5 0 0] 
s 1.010271079 _5_ MAC  --- 0 AODV 102 [13a 4 5 800] ------- [5:255 4:255 30 4] [0x4 1 [5 6] 10.000000] (REPLY)
s 1.010285117 _1_ MAC  --- 0 RTS 44 [52e 0 1 0] 
r 1.010318079 _11_ MAC  --- 10 tcp 40 [13a b a 800] ------- [10:1 11:0 30 11] [0 0] 1 0
s 1.010328079 _11_ MAC  --- 0 ACK 38 [0 a 0 0] 
r 1.010332387 _33_ MAC  --- 0 AODV 48 [0 ffffffff 22 800] ------- [34:255 -1:255 30 0] [0x2 1 1 [35 0] [34 4]] (REQUEST)
r 1.010332534 _35_ MAC  --- 0 AODV 48 [0 ffffffff 22 800] ------- [34:255 -1:255 30 0] [0x2 1 1 [35 0] [34 4]] (REQUEST)
D 1.010357387 _33_ IFQ  ARP 31 tcp 40 [0 0 21 800] ------- [33:1 34:0 30 34] [0 0] 0 0
D 1.010357387 _33_ IFQ  ARP 68 cbr 1020 [0 0 21 800] ------- [33:3 34:2 30 34] [0] 0 0
r 1.010427562 _37_ MAC  --- 0 ARP 28 [13a 25 26 806] ------- [REPLY 38/38 37/37]
s 1.010437562 _37_ MAC  --- 0 ACK 38 [0 26 0 0] 
r 1.010632782 _10_ MAC  --- 0 ACK 38 [0 a 0 0] 
r 1.010637764 _0_ MAC  --- 0 RTS 44 [52e 0 1 0] 
s 1.010647764 _0_ MAC  --- 0 CTS 38 [3f4 1 0 0] 
r 1.010742169 _38_ MAC  --- 0 ACK 38 [0 26 0 0] 
s 1.010742534 _35_ MAC  --- 0 RTS 44 [58e 24 23 0] 
s 1.010842079 _11_ MAC  --- 0 RTS 44 [58e a b 0] 
s 1.010911562 _37_ MAC  --- 0 AODV 106 [0 ffffffff 25 800] ------- [37:255 -1:255 29 0] [0x2 2 1 [39 0] [38 4]] (REQUEST)
r 1.010936022 _29_ MAC  --- 0 ARP 28 [0 ffffffff 1e 806] ------- [REQUEST 30/30 0/29]
D 1.010936095 _31_ MAC  COL 0 ARP 86 [0 ffffffff 1e 806] ------- [REQUEST 30/30 0/29]
r 1.010952411 _1_ MAC  --- 0 CTS 38 [3f4 1 0 0] 
s 1.010962411 _1_ MAC  --- 0 ARP 86 [13a 0 1 806] ------- [REPLY 1/1 0/0]
r 1.011087553 _4_ MAC  --- 0 AODV 44 [13a 4 5 800] ------- [5:255 4:255 30 4] [0x4 1 [5 6] 10.000000] (REPLY)
r 1.011094807 _36_ MAC  --- 0 RTS 44 [58e 24 23 0] 
s 1.011097553 _4_ MAC  --- 0 ACK 38 [0 5 0 0] 
s 1.011104807 _36_ MAC  --- 0 CTS 38 [454 23 0 0] 
s 1.011125528 _30_ MAC  --- 0 RTS 44 [5ae 1d 1e 0] 
r 1.011194782 _10_ MAC  --- 0 RTS 44 [58e a b 0] 
s 1.011204782 _10_ MAC  --- 0 CTS 38 [454 b 0 0] 
r 1.011402028 _5_ MAC  --- 0 ACK 38 [0 5 0 0] 
r 1.011409081 _35_ MAC  --- 0 CTS 38 [454 23 0 0] 
s 1.011419081 _35_ MAC  --- 33 tcp 98 [13a 24 23 800] ------- [35:1 36:0 30 36] [0 0] 0 0
r 1.011478022 _29_ MAC  --- 0 RTS 44 [5ae 1d 1e 0] 
s 1.011488022 _29_ MAC  --- 0 CTS 38 [474 1e 0 0] 
r 1.011509485 _11_ MAC  --- 0 CTS 38 [454 b 0 0] 
s 1.011519485 _11_ MAC  --- 113 ack 98 [13a a b 800] ------- [11:0 10:1 30 10] [0 0] 0 0
r 1.011651058 _0_ MAC  --- 0 ARP 28 [13a 0 1 806] ------- [REPLY 1/1 0/0]
s 1.011661058 _0_ MAC  --- 0 ACK 38 [0 1 0 0] 
s 1.011671553 _4_ MAC  --- 0 ARP 86 [0 ffffffff 4 806] ------- [REQUEST 4/4 0/5]
r 1.011760169 _38_ MAC  --- 0 AODV 48 [0 ffffffff 25 800] ------- [37:255 -1:255 29 0] [0x2 2 1 [39 0] [38 4]] (REQUEST)
r 1.011792515 _30_ MAC  --- 0 CTS 38 [474 1e 0 0] 
s 1.011802515 _30_ MAC  --- 0 AODV 102 [13a 1d 1e 800] ------- [30:255 29:255 30 29] [0x4 1 [30 6] 10.000000] (REPLY)
r 1.011965705 _1_ MAC  --- 0 ACK 38 [0 1 0 0] 
r 1.012203354 _36_ MAC  --- 33 tcp 40 [13a 24 23 800] ------- [35:1 36:0 30 36] [0 0] 1 0
s 1.012213354 _36_ MAC  --- 0 ACK 38 [0 23 0 0] 
s 1.012255058 _0_ MAC  --- 0 RTS 44 [6ee 1 0 0] 
s 1.012294529 _24_ MAC  --- 0 AODV 106 [0 ffffffff 18 800] ------- [24:255 -1:255 30 0] [0x2 1 1 [25 0] [24 4]] (REQUEST)
r 1.012304188 _10_ MAC  --- 113 ack 40 [13a a b 800] ------- [11:0 10:1 30 10] [0 0] 1 0
s 1.012314188 _10_ MAC  --- 0 ACK 38 [0 b 0 0] 
r 1.012360028 _5_ MAC  --- 0 ARP 28 [0 ffffffff 4 806] ------- [REQUEST 4/4 0/5]
r 1.012360228 _3_ MAC  --- 0 ARP 28 [0 ffffffff 4 806] ------- [REQUEST 4/4 0/5]
s 1.012430228 _3_ MAC  --- 0 AODV 106 [0 ffffffff 3 800] ------- [3:255 -1:255 30 0] [0x2 1 1 [4 0] [3 4]] (REQUEST)
r 1.012517627 _35_ MAC  --- 0 ACK 38 [0 23 0 0] 
r 1.012607705 _1_ MAC  --- 0 RTS 44 [6ee 1 0 0] 
r 1.012618892 _11_ MAC  --- 0 ACK 38 [0 b 0 0] 
r 1.012619008 _29_ MAC  --- 0 AODV 44 [13a 1d 1e 800] ------- [30:255 29:255 30 29] [0x4 1 [30 6] 10.000000] (REPLY)
s 1.012629008 _29_ MAC  --- 0 ACK 38 [0 1e 0 0] 
s 1.012927354 _36_ MAC  --- 0 RTS 44 [58e 23 24 0] 
s 1.012927627 _35_ MAC  --- 0 ARP 86 [0 ffffffff 23 806] ------- [REQUEST 35/35 0/34]
r 1.012933502 _30_ MAC  --- 0 ACK 38 [0 1e 0 0] 
s 1.012958762 _9_ MAC  --- 0 AODV 106 [0 ffffffff 9 800] ------- [9:255 -1:255 30 0] [0x2 1 1 [10 0] [9 4]] (REQUEST)
r 1.013143182 _25_ MAC  --- 0 AODV 48 [0 ffffffff 18 800] ------- [24:255 -1:255 30 0] [0x2 1 1 [25 0] [24 4]] (REQUEST)
s 1.013253395 _28_ MAC  --- 0 ARP 86 [0 ffffffff 1c 806] ------- [REQUEST 28/28 0/27]
D 1.013278795 _2_ MAC  COL 0 AODV 106 [0 ffffffff 3 800] ------- [3:255 -1:255 30 0] [0x2 1 1 [4 0] [3 4]] (REQUEST)
r 1.013278902 _4_ MAC  --- 0 AODV 48 [0 ffffffff 3 800] ------- [3:255 -1:255 30 0] [0x2 1 1 [4 0] [3 4]] (REQUEST)
s 1.013435058 _0_ MAC  --- 0 RTS 44 [6ee 1 0 0] 
s 1.013577624 _38_ MAC  --- 0 RTS 44 [52e 25 26 0] 
D 1.013616221 _34_ MAC  COL 0 ARP 86 [0 ffffffff 23 806] ------- [REQUEST 35/35 0/34]
r 1.013787705 _1_ MAC  --- 0 RTS 44 [6ee 1 0 0] 
s 1.013788902 _4_ MAC  --- 0 ARP 86 [0 ffffffff 4 806] ------- [REQUEST 4/4 0/5]
s 1.013797705 _1_ MAC  --- 0 CTS 38 [5b4 0 0 0] 
r 1.013807289 _8_ MAC  --- 0 AODV 48 [0 ffffffff 9 800] ------- [9:255 -1:255 30 0] [0x2 1 1 [10 0] [9 4]] (REQUEST)
r 1.013807335 _10_ MAC  --- 0 AODV 48 [0 ffffffff 9 800] ------- [9:255 -1:255 30 0] [0x2 1 1 [10 0] [9 4]] (REQUEST)
D 1.013832289 _8_ IFQ  ARP 8 tcp 40 [0 0 8 800] ------- [8:1 9:0 30 9] [0 0] 0 0
D 1.013832289 _8_ IFQ  ARP 45 cbr 1020 [0 0 8 800] ------- [8:3 9:2 30 9] [0] 0 0
s 1.013896762 _9_ MAC  --- 0 AODV 106 [0 ffffffff 9 800] ------- [9:255 -1:255 29 0] [0x2 2 1 [11 0] [10 4]] (REQUEST)
s 1.013897289 _8_ MAC  --- 0 AODV 106 [0 ffffffff 8 800] ------- [8:255 -1:255 30 0] [0x2 1 1 [9 0] [8 4]] (REQUEST)
r 1.013930232 _37_ MAC  --- 0 RTS 44 [52e 25 26 0] 
s 1.013940232 _37_ MAC  --- 0 CTS 38 [3f4 26 0 0] 
r 1.013941782 _29_ MAC  --- 0 ARP 28 [0 ffffffff 1c 806] ------- [REQUEST 28/28 0/27]
r 1.013941948 _27_ MAC  --- 0 ARP 28 [0 ffffffff 1c 806] ------- [REQUEST 28/28 0/27]
s 1.014031782 _29_ MAC  --- 0 AODV 106 [0 ffffffff 1d 800] ------- [29:255 -1:255 29 0] [0x2 2 1 [31 0] [30 4]] (REQUEST)
r 1.014102352 _0_ MAC  --- 0 CTS 38 [5b4 0 0 0] 
s 1.014112352 _0_ MAC  --- 74 ping 142 [13a 1 0 800] ------- [0:2 1:4 30 1] 
s 1.014169901 _36_ MAC  --- 0 RTS 44 [58e 23 24 0] 
r 1.014244839 _38_ MAC  --- 0 CTS 38 [3f4 26 0 0] 
s 1.014254839 _38_ MAC  --- 0 ARP 86 [13a 25 26 806] ------- [REPLY 38/38 37/37]
r 1.014477376 _5_ MAC  --- 0 ARP 28 [0 ffffffff 4 806] ------- [REQUEST 4/4 0/5]
D 1.014477576 _3_ MAC  COL 0 ARP 86 [0 ffffffff 4 806] ------- [REQUEST 4/4 0/5]
r 1.014522174 _35_ MAC  --- 0 RTS 44 [58e 23 24 0] 
s 1.014532174 _35_ MAC  --- 0 CTS 38 [454 24 0 0] 
s 1.014606902 _4_ MAC  --- 0 RTS 44 [6ee 5 4 0] 
r 1.014745335 _10_ MAC  --- 0 AODV 48 [0 ffffffff 9 800] ------- [9:255 -1:255 29 0] [0x2 2 1 [11 0] [10 4]] (REQUEST)
D 1.014745835 _7_ MAC  COL 0 AODV 106 [0 ffffffff 8 800] ------- [8:255 -1:255 30 0] [0x2 1 1 [9 0] [8 4]] (REQUEST)
r 1.014836447 _36_ MAC  --- 0 CTS 38 [454 24 0 0] 
s 1.014846447 _36_ MAC  --- 114 ack 98 [13a 23 24 800] ------- [36:0 35:1 30 35] [0 0] 0 0
r 1.014880169 _28_ MAC  --- 0 AODV 48 [0 ffffffff 1d 800] ------- [29:255 -1:255 29 0] [0x2 2 1 [31 0] [30 4]] (REQUEST)
r 1.014880275 _30_ MAC  --- 0 AODV 48 [0 ffffffff 1d 800] ------- [29:255 -1:255 29 0] [0x2 2 1 [31 0] [30 4]] (REQUEST)
r 1.014943447 _37_ MAC  --- 0 ARP 28 [13a 25 26 806] ------- [REPLY 38/38 37/37]
s 1.014953447 _37_ MAC  --- 0 ACK 38 [0 26 0 0] 
r 1.014959376 _5_ MAC  --- 0 RTS 44 [6ee 5 4 0] 
s 1.015159289 _8_ MAC  --- 0 ARP 86 [0 ffffffff 8 806] ------- [REQUEST 8/8 0/9]
s 1.015230275 _30_ MAC  --- 0 RTS 44 [52e 1d 1e 0] 
r 1.015248999 _1_ MAC  --- 74 ping 84 [13a 1 0 800] ------- [0:2 1:4 30 1] 
r 1.015258055 _38_ MAC  --- 0 ACK 38 [0 26 0 0] 
s 1.015258999 _1_ MAC  --- 0 ACK 38 [0 0 0 0] 
s 1.015347447 _37_ MAC  --- 0 RTS 44 [6ee 26 25 0] 
r 1.015563646 _0_ MAC  --- 0 ACK 38 [0 0 0 0] 
r 1.015582769 _29_ MAC  --- 0 RTS 44 [52e 1d 1e 0] 
s 1.015592769 _29_ MAC  --- 0 CTS 38 [3f4 1e 0 0] 
D 1.015625000 _8_ RTR  CBK 82 ping 84 [0 0 8 800] ------- [8:5 9:4 30 9] 
D 1.015625000 _8_ RTR  CBK 126 cbr 1020 [0 0 8 800] ------- [8:3 9:2 30 9] [1] 0 0
D 1.015625000 _9_ RTR  CBK 83 ping 84 [0 0 9 800] ------- [9:5 10:4 30 10] 
D 1.015625000 _9_ RTR  CBK 127 cbr 1020 [0 0 9 800] ------- [9:3 10:2 30 10] [1] 0 0
D 1.015625000 _14_ RTR  CBK 87 ping 84 [0 0 e 800] ------- [14:5 15:4 30 15] 
D 1.015625000 _14_ RTR  CBK 131 cbr 1020 [0 0 e 800] ------- [14:3 15:2 30 15] [1] 0 0
D 1.015625000 _21_ RTR  CBK 94 ping 84 [0 0 15 800] ------- [21:5 22:4 30 22] 
D 1.015625000 _21_ RTR  CBK 138 cbr 1020 [0 0 15 800] ------- [21:3 22:2 30 22] [1] 0 0
D 1.015625000 _31_ RTR  CBK 103 ping 84 [0 0 1f 800] ------- [31:5 32:4 30 32] 
D 1.015625000 _31_ RTR  CBK 147 cbr 1020 [0 0 1f 800] ------- [31:3 32:2 30 32] [1] 0 0
D 1.015625000 _33_ RTR  CBK 105 ping 84 [0 0 21 800] ------- [33:5 34:4 30 34] 
D 1.015625000 _33_ RTR  CBK 149 cbr 1020 [0 0 21 800] ------- [33:3 34:2 30 34] [1] 0 0
D 1.015625000 _38_ RTR  CBK 109 ping 84 [0 0 26 800] ------- [38:5 39:4 30 39] 
D 1.015625000 _38_ RTR  CBK 153 cbr 1020 [0 0 26 800] ------- [38:3 39:2 30 39] [1] 0 0
r 1.015630721 _35_ MAC  --- 114 ack 40 [13a 23 24 800] ------- [36:0 35:1 30 35] [0 0] 1 0
s 1.015640721 _35_ MAC  --- 0 ACK 38 [0 24 0 0] 
s 1.015686902 _4_ MAC  --- 0 RTS 44 [6ee 5 4 0] 
r 1.015700055 _38_ MAC  --- 0 RTS 44 [6ee 26 25 0] 
s 1.015710055 _38_ MAC  --- 0 CTS 38 [5b4 25 0 0] 
r 1.015847816 _9_ MAC  --- 0 ARP 28 [0 ffffffff 8 806] ------- [REQUEST 8/8 0/9]
r 1.015847835 _7_ MAC  --- 0 ARP 28 [0 ffffffff 8 806] ------- [REQUEST 8/8 0/9]
r 1.015897262 _30_ MAC  --- 0 CTS 38 [3f4 1e 0 0] 
s 1.015907262 _30_ MAC  --- 0 ARP 86 [13a 1d 1e 806] ------- [REPLY 30/30 29/29]
s 1.015912999 _1_ MAC  --- 0 AODV 106 [0 ffffffff 1 800] ------- [1:255 -1:255 30 0] [0x2 1 2 [0 0] [1 6]] (REQUEST)
r 1.015944994 _36_ MAC  --- 0 ACK 38 [0 24 0 0] 
r 1.016014662 _37_ MAC  --- 0 CTS 38 [5b4 25 0 0] 
s 1.016024662 _37_ MAC  --- 108 ping 142 [13a 26 25 800] ------- [37:2 38:4 30 38] 
D 1.016039376 _5_ MAC  COL 0 RTS 44 [6ee 5 4 0] 
s 1.016114721 _35_ MAC  --- 0 RTS 44 [242e 24 23 0] 
s 1.016322389 _10_ MAC  --- 0 RTS 44 [24ce b a 0] 
r 1.016466994 _36_ MAC  --- 0 RTS 44 [242e 24 23 0] 
s 1.016476994 _36_ MAC  --- 0 CTS 38 [22f4 23 0 0] 
r 1.016595755 _29_ MAC  --- 0 ARP 28 [13a 1d 1e 806] ------- [REPLY 30/30 29/29]
s 1.016605755 _29_ MAC  --- 0 ACK 38 [0 1e 0 0] 
r 1.016675092 _11_ MAC  --- 0 RTS 44 [24ce b a 0] 
s 1.016685092 _11_ MAC  --- 0 CTS 38 [2394 a 0 0] 
s 1.016693376 _5_ MAC  --- 0 ARP 86 [0 ffffffff 5 806] ------- [REQUEST 5/5 0/6]
D 1.016761626 _2_ MAC  COL 0 AODV 106 [0 ffffffff 1 800] ------- [1:255 -1:255 30 0] [0x2 1 2 [0 0] [1 6]] (REQUEST)
r 1.016761646 _0_ MAC  --- 0 AODV 48 [0 ffffffff 1 800] ------- [1:255 -1:255 30 0] [0x2 1 2 [0 0] [1 6]] (REQUEST)
r 1.016781267 _35_ MAC  --- 0 CTS 38 [22f4 23 0 0] 
s 1.016791267 _35_ MAC  --- 151 cbr 1078 [13a 24 23 800] ------- [35:3 36:1 30 36] [1] 0 0
r 1.016910249 _30_ MAC  --- 0 ACK 38 [0 1e 0 0] 
s 1.016931646 _0_ MAC  --- 0 RTS 44 [242e 1 0 0] 
r 1.016989795 _10_ MAC  --- 0 CTS 38 [2394 a 0 0] 
s 1.016999795 _10_ MAC  --- 115 tcp 1098 [13a b a 800] ------- [10:1 11:0 30 11] [1 0] 0 0
r 1.017161270 _38_ MAC  --- 108 ping 84 [13a 26 25 800] ------- [37:2 38:4 30 38] 
s 1.017170142 _28_ MAC  --- 0 ARP 86 [0 ffffffff 1c 806] ------- [REQUEST 28/28 0/29]
s 1.017171270 _38_ MAC  --- 0 ACK 38 [0 25 0 0] 
r 1.017284293 _1_ MAC  --- 0 RTS 44 [242e 1 0 0] 
s 1.017294293 _1_ MAC  --- 0 CTS 38 [22f4 0 0 0] 