n -t * -s 0  -x 102 -y 1056 -Z 0 -z 20  -v circle -c black
n -t * -s 1  -x 296 -y 1062 -Z 0 -z 20  -v circle -c black
n -t * -s 2  -x 484 -y 1072 -Z 0 -z 20  -v circle -c black
n -t * -s 3  -x 654 -y 1080 -Z 0 -z 20  -v circle -c black
n -t * -s 4  -x 856 -y 1070 -Z 0 -z 20  -v circle -c black
n -t * -s 5  -x 998 -y 1060 -Z 0 -z 20  -v circle -c black
n -t * -s 6  -x 1128 -y 1060 -Z 0 -z 20  -v circle -c black
n -t * -s 7  -x 1252 -y 1060 -Z 0 -z 20  -v circle -c black
n -t * -s 8  -x 1416 -y 1060 -Z 0 -z 20  -v circle -c black
n -t * -s 9  -x 1574 -y 1066 -Z 0 -z 20  -v circle -c black
n -t * -s 10  -x 1746 -y 1060 -Z 0 -z 20  -v circle -c black
n -t * -s 11  -x 1956 -y 1040 -Z 0 -z 20  -v circle -c black
n -t * -s 12  -x 124 -y 784 -Z 0 -z 20  -v circle -c black
n -t * -s 13  -x 306 -y 788 -Z 0 -z 20  -v circle -c black
n -t * -s 14  -x 516 -y 782 -Z 0 -z 20  -v circle -c black
n -t * -s 15  -x 662 -y 776 -Z 0 -z 20  -v circle -c black
n -t * -s 16  -x 796 -y 780 -Z 0 -z 20  -v circle -c black
n -t * -s 17  -x 900 -y 776 -Z 0 -z 20  -v circle -c black
n -t * -s 18  -x 1070 -y 776 -Z 0 -z 20  -v circle -c black
n -t * -s 19  -x 1234 -y 782 -Z 0 -z 20  -v circle -c black
n -t * -s 20  -x 1402 -y 782 -Z 0 -z 20  -v circle -c black
n -t * -s 21  -x 1596 -y 780 -Z 0 -z 20  -v circle -c black
n -t * -s 22  -x 1798 -y 780 -Z 0 -z 20  -v circle -c black
n -t * -s 23  -x 1972 -y 784 -Z 0 -z 20  -v circle -c black
n -t * -s 24  -x 124 -y 420 -Z 0 -z 20  -v circle -c black
n -t * -s 25  -x 320 -y 420 -Z 0 -z 20  -v circle -c black
n -t * -s 26  -x 496 -y 422 -Z 0 -z 20  -v circle -c black
n -t * -s 27  -x 652 -y 422 -Z 0 -z 20  -v circle -c black
n -t * -s 28  -x 818 -y 422 -Z 0 -z 20  -v circle -c black
n -t * -s 29  -x 934 -y 426 -Z 0 -z 20  -v circle -c black
n -t * -s 30  -x 1082 -y 424 -Z 0 -z 20  -v circle -c black
n -t * -s 31  -x 1252 -y 424 -Z 0 -z 20  -v circle -c black
n -t * -s 32  -x 1412 -y 432 -Z 0 -z 20  -v circle -c black
n -t * -s 33  -x 1588 -y 430 -Z 0 -z 20  -v circle -c black
n -t * -s 34  -x 1722 -y 432 -Z 0 -z 20  -v circle -c black
n -t * -s 35  -x 1900 -y 434 -Z 0 -z 20  -v circle -c black
n -t * -s 36  -x 1982 -y 434 -Z 0 -z 20  -v circle -c black
n -t * -s 37  -x 114 -y 130 -Z 0 -z 20  -v circle -c black
n -t * -s 38  -x 296 -y 140 -Z 0 -z 20  -v circle -c black
n -t * -s 39  -x 460 -y 140 -Z 0 -z 20  -v circle -c black
n -t * -s 40  -x 658 -y 140 -Z 0 -z 20  -v circle -c black
V -t * -v 1.0a5 -a 0
W -t * -x 1000 -y 1000
A -t * -n 1 -p 0 -o 0x7fffffff -c 30 -a 1
A -t * -h 1 -m 1073741823 -s 0
+ -t 1.000075000 -s 15 -d -1 -p AODV -e 106 -c 2 -a 0 -i 0 -k MAC 
- -t 1.000075000 -s 15 -d -1 -p AODV -e 106 -c 2 -a 0 -i 0 -k MAC
h -t 1.000075000 -s 15 -d -1 -p AODV -e 106 -c 2 -a 0 -i 0 -k MAC
+ -t 1.000075000 -s 22 -d -1 -p AODV -e 106 -c 2 -a 0 -i 0 -k MAC 
- -t 1.000075000 -s 22 -d -1 -p AODV -e 106 -c 2 -a 0 -i 0 -k MAC
h -t 1.000075000 -s 22 -d -1 -p AODV -e 106 -c 2 -a 0 -i 0 -k MAC
+ -t 1.000155000 -s 38 -d -1 -p AODV -e 106 -c 2 -a 0 -i 0 -k MAC 
- -t 1.000155000 -s 38 -d -1 -p AODV -e 106 -c 2 -a 0 -i 0 -k MAC
h -t 1.000155000 -s 38 -d -1 -p AODV -e 106 -c 2 -a 0 -i 0 -k MAC
+ -t 1.000195000 -s 7 -d -1 -p AODV -e 106 -c 2 -a 0 -i 0 -k MAC 
- -t 1.000195000 -s 7 -d -1 -p AODV -e 106 -c 2 -a 0 -i 0 -k MAC
h -t 1.000195000 -s 7 -d -1 -p AODV -e 106 -c 2 -a 0 -i 0 -k MAC
+ -t 1.000275000 -s 0 -d -1 -p AODV -e 106 -c 2 -a 0 -i 0 -k MAC 
- -t 1.000275000 -s 0 -d -1 -p AODV -e 106 -c 2 -a 0 -i 0 -k MAC
h -t 1.000275000 -s 0 -d -1 -p AODV -e 106 -c 2 -a 0 -i 0 -k MAC
+ -t 1.000375000 -s 31 -d -1 -p AODV -e 106 -c 2 -a 0 -i 0 -k MAC 
- -t 1.000375000 -s 31 -d -1 -p AODV -e 106 -c 2 -a 0 -i 0 -k MAC
h -t 1.000375000 -s 31 -d -1 -p AODV -e 106 -c 2 -a 0 -i 0 -k MAC
r -t 1.000923447 -s 16 -d -1 -p AODV -e 48 -c 2 -a 0 -i 0 -k MAC
r -t 1.000923487 -s 14 -d -1 -p AODV -e 48 -c 2 -a 0 -i 0 -k MAC
r -t 1.000923580 -s 23 -d -1 -p AODV -e 48 -c 2 -a 0 -i 0 -k MAC
r -t 1.000923673 -s 21 -d -1 -p AODV -e 48 -c 2 -a 0 -i 0 -k MAC
r -t 1.000923793 -s 17 -d -1 -p AODV -e 48 -c 2 -a 0 -i 0 -k MAC
d -t 1.000948487 -s 14 -d 15 -p tcp -e 40 -c 2 -a 0 -i 13 -k IFQ
d -t 1.000948487 -s 14 -d 15 -p cbr -e 1020 -c 2 -a 0 -i 50 -k IFQ
d -t 1.000948673 -s 21 -d 22 -p tcp -e 40 -c 2 -a 0 -i 20 -k IFQ
d -t 1.000948673 -s 21 -d 22 -p cbr -e 1020 -c 2 -a 0 -i 57 -k IFQ
r -t 1.001003547 -s 39 -d -1 -p AODV -e 48 -c 2 -a 0 -i 0 -k MAC
r -t 1.001003608 -s 37 -d -1 -p AODV -e 48 -c 2 -a 0 -i 0 -k MAC
d -t 1.001028608 -s 37 -d 38 -p tcp -e 40 -c 2 -a 0 -i 34 -k IFQ
d -t 1.001028608 -s 37 -d 38 -p cbr -e 1020 -c 2 -a 0 -i 71 -k IFQ
d -t 1.001043413 -s 6 -d -1 -p AODV -e 106 -c 2 -a 0 -i 0 -k MAC
d -t 1.001043547 -s 8 -d -1 -p AODV -e 106 -c 2 -a 0 -i 0 -k MAC
+ -t 1.001063580 -s 23 -d -1 -p ARP -e 86 -c 2 -a 0 -i 0 -k MAC 
- -t 1.001063580 -s 23 -d -1 -p ARP -e 86 -c 2 -a 0 -i 0 -k MAC
h -t 1.001063580 -s 23 -d -1 -p ARP -e 86 -c 2 -a 0 -i 0 -k MAC
+ -t 1.001073608 -s 37 -d -1 -p AODV -e 106 -c 2 -a 0 -i 0 -k MAC 
- -t 1.001073608 -s 37 -d -1 -p AODV -e 106 -c 2 -a 0 -i 0 -k MAC
h -t 1.001073608 -s 37 -d -1 -p AODV -e 106 -c 2 -a 0 -i 0 -k MAC
d -t 1.001123647 -s 1 -d -1 -p AODV -e 106 -c 2 -a 0 -i 0 -k MAC
d -t 1.001223534 -s 32 -d -1 -p AODV -e 106 -c 2 -a 0 -i 0 -k MAC
d -t 1.001223567 -s 30 -d -1 -p AODV -e 106 -c 2 -a 0 -i 0 -k MAC
+ -t 1.001438514 -s 27 -d -1 -p AODV -e 106 -c 2 -a 0 -i 0 -k MAC 
- -t 1.001438514 -s 27 -d -1 -p AODV -e 106 -c 2 -a 0 -i 0 -k MAC
h -t 1.001438514 -s 27 -d -1 -p AODV -e 106 -c 2 -a 0 -i 0 -k MAC
+ -t 1.001517413 -s 6 -d -1 -p AODV -e 106 -c 2 -a 0 -i 0 -k MAC 
- -t 1.001517413 -s 6 -d -1 -p AODV -e 106 -c 2 -a 0 -i 0 -k MAC
h -t 1.001517413 -s 6 -d -1 -p AODV -e 106 -c 2 -a 0 -i 0 -k MAC
+ -t 1.001637647 -s 1 -d -1 -p AODV -e 106 -c 2 -a 0 -i 0 -k MAC 
- -t 1.001637647 -s 1 -d -1 -p AODV -e 106 -c 2 -a 0 -i 0 -k MAC
h -t 1.001637647 -s 1 -d -1 -p AODV -e 106 -c 2 -a 0 -i 0 -k MAC
+ -t 1.001677534 -s 32 -d -1 -p AODV -e 106 -c 2 -a 0 -i 0 -k MAC 
- -t 1.001677534 -s 32 -d -1 -p AODV -e 106 -c 2 -a 0 -i 0 -k MAC
h -t 1.001677534 -s 32 -d -1 -p AODV -e 106 -c 2 -a 0 -i 0 -k MAC
r -t 1.001752160 -s 22 -d -1 -p ARP -e 28 -c 2 -a 0 -i 0 -k MAC
r -t 1.001922215 -s 38 -d -1 -p AODV -e 48 -c 2 -a 0 -i 0 -k MAC
+ -t 1.002271608 -s 37 -d -1 -p ARP -e 86 -c 2 -a 0 -i 0 -k MAC 
- -t 1.002271608 -s 37 -d -1 -p ARP -e 86 -c 2 -a 0 -i 0 -k MAC
h -t 1.002271608 -s 37 -d -1 -p ARP -e 86 -c 2 -a 0 -i 0 -k MAC
d -t 1.002287034 -s 26 -d -1 -p AODV -e 106 -c 2 -a 0 -i 0 -k MAC
r -t 1.002287067 -s 28 -d -1 -p AODV -e 48 -c 2 -a 0 -i 0 -k MAC
r -t 1.002365827 -s 7 -d -1 -p AODV -e 48 -c 2 -a 0 -i 0 -k MAC
r -t 1.002365847 -s 5 -d -1 -p AODV -e 48 -c 2 -a 0 -i 0 -k MAC
d -t 1.002390847 -s 5 -d 6 -p tcp -e 40 -c 2 -a 0 -i 5 -k IFQ
d -t 1.002390847 -s 5 -d 6 -p cbr -e 1020 -c 2 -a 0 -i 42 -k IFQ
+ -t 1.002446769 -s 10 -d -1 -p AODV -e 106 -c 2 -a 0 -i 0 -k MAC 
- -t 1.002446769 -s 10 -d -1 -p AODV -e 106 -c 2 -a 0 -i 0 -k MAC
h -t 1.002446769 -s 10 -d -1 -p AODV -e 106 -c 2 -a 0 -i 0 -k MAC
r -t 1.002486275 -s 2 -d -1 -p AODV -e 48 -c 2 -a 0 -i 0 -k MAC
r -t 1.002486294 -s 0 -d -1 -p AODV -e 48 -c 2 -a 0 -i 0 -k MAC
d -t 1.002511294 -s 0 -d 1 -p tcp -e 40 -c 2 -a 0 -i 0 -k IFQ
d -t 1.002511294 -s 0 -d 1 -p cbr -e 1020 -c 2 -a 0 -i 37 -k IFQ
r -t 1.002526068 -s 31 -d -1 -p AODV -e 48 -c 2 -a 0 -i 0 -k MAC
d -t 1.002526121 -s 33 -d -1 -p AODV -e 106 -c 2 -a 0 -i 0 -k MAC
d -t 1.002551068 -s 31 -d 32 -p tcp -e 40 -c 2 -a 0 -i 29 -k IFQ
d -t 1.002551068 -s 31 -d 32 -p cbr -e 1020 -c 2 -a 0 -i 66 -k IFQ
+ -t 1.002716068 -s 31 -d -1 -p ARP -e 86 -c 2 -a 0 -i 0 -k MAC 
- -t 1.002716068 -s 31 -d -1 -p ARP -e 86 -c 2 -a 0 -i 0 -k MAC
h -t 1.002716068 -s 31 -d -1 -p ARP -e 86 -c 2 -a 0 -i 0 -k MAC
+ -t 1.002726294 -s 0 -d -1 -p ARP -e 86 -c 2 -a 0 -i 0 -k MAC 
- -t 1.002726294 -s 0 -d -1 -p ARP -e 86 -c 2 -a 0 -i 0 -k MAC
h -t 1.002726294 -s 0 -d -1 -p ARP -e 86 -c 2 -a 0 -i 0 -k MAC
+ -t 1.002920321 -s 4 -d -1 -p AODV -e 106 -c 2 -a 0 -i 0 -k MAC 
- -t 1.002920321 -s 4 -d -1 -p AODV -e 106 -c 2 -a 0 -i 0 -k MAC
h -t 1.002920321 -s 4 -d -1 -p AODV -e 106 -c 2 -a 0 -i 0 -k MAC
r -t 1.002960215 -s 38 -d -1 -p ARP -e 28 -c 2 -a 0 -i 0 -k MAC
+ -t 1.003129608 -s 37 -d -1 -p ARP -e 86 -c 2 -a 0 -i 0 -k MAC 
- -t 1.003129608 -s 37 -d -1 -p ARP -e 86 -c 2 -a 0 -i 0 -k MAC
h -t 1.003129608 -s 37 -d -1 -p ARP -e 86 -c 2 -a 0 -i 0 -k MAC
+ -t 1.003141161 -s 35 -d -1 -p AODV -e 106 -c 2 -a 0 -i 0 -k MAC 
- -t 1.003141161 -s 35 -d -1 -p AODV -e 106 -c 2 -a 0 -i 0 -k MAC
h -t 1.003141161 -s 35 -d -1 -p AODV -e 106 -c 2 -a 0 -i 0 -k MAC
r -t 1.003295343 -s 9 -d -1 -p AODV -e 48 -c 2 -a 0 -i 0 -k MAC
r -t 1.003295472 -s 11 -d -1 -p AODV -e 48 -c 2 -a 0 -i 0 -k MAC
d -t 1.003320343 -s 9 -d 10 -p tcp -e 40 -c 2 -a 0 -i 9 -k IFQ
d -t 1.003320343 -s 9 -d 10 -p cbr -e 1020 -c 2 -a 0 -i 46 -k IFQ
+ -t 1.003375472 -s 11 -d -1 -p ARP -e 86 -c 2 -a 0 -i 0 -k MAC 
- -t 1.003375472 -s 11 -d -1 -p ARP -e 86 -c 2 -a 0 -i 0 -k MAC
h -t 1.003375472 -s 11 -d -1 -p ARP -e 86 -c 2 -a 0 -i 0 -k MAC
r -t 1.003404602 -s 32 -d -1 -p ARP -e 28 -c 2 -a 0 -i 0 -k MAC
r -t 1.003404635 -s 30 -d -1 -p ARP -e 28 -c 2 -a 0 -i 0 -k MAC
r -t 1.003414941 -s 1 -d -1 -p ARP -e 28 -c 2 -a 0 -i 0 -k MAC
+ -t 1.003504941 -s 1 -d -1 -p RTS -e 44 -c 2 -a 0 -i 0 -k MAC 
- -t 1.003504941 -s 1 -d -1 -p RTS -e 44 -c 2 -a 0 -i 0 -k MAC
h -t 1.003504941 -s 1 -d -1 -p RTS -e 44 -c 2 -a 0 -i 0 -k MAC
d -t 1.003506136 -s 3 -d -1 -p AODV -e 106 -c 2 -a 0 -i 0 -k MAC
+ -t 1.003574635 -s 30 -d -1 -p AODV -e 106 -c 2 -a 0 -i 0 -k MAC 
- -t 1.003574635 -s 30 -d -1 -p AODV -e 106 -c 2 -a 0 -i 0 -k MAC
h -t 1.003574635 -s 30 -d -1 -p AODV -e 106 -c 2 -a 0 -i 0 -k MAC
r -t 1.003768795 -s 5 -d -1 -p AODV -e 48 -c 2 -a 0 -i 0 -k MAC
r -t 1.003818215 -s 38 -d -1 -p ARP -e 28 -c 2 -a 0 -i 0 -k MAC
r -t 1.003857588 -s 0 -d -1 -p RTS -e 44 -c 2 -a 0 -i 0 -k MAC
+ -t 1.003858795 -s 5 -d -1 -p AODV -e 106 -c 2 -a 0 -i 0 -k MAC 
- -t 1.003858795 -s 5 -d -1 -p AODV -e 106 -c 2 -a 0 -i 0 -k MAC
h -t 1.003858795 -s 5 -d -1 -p AODV -e 106 -c 2 -a 0 -i 0 -k MAC
+ -t 1.003867588 -s 0 -d -1 -p CTS -e 38 -c 2 -a 0 -i 0 -k MAC 
- -t 1.003867588 -s 0 -d -1 -p CTS -e 38 -c 2 -a 0 -i 0 -k MAC
h -t 1.003867588 -s 0 -d -1 -p CTS -e 38 -c 2 -a 0 -i 0 -k MAC
r -t 1.003989434 -s 36 -d -1 -p AODV -e 48 -c 2 -a 0 -i 0 -k MAC
d -t 1.003989754 -s 34 -d -1 -p AODV -e 106 -c 2 -a 0 -i 0 -k MAC
r -t 1.004064176 -s 10 -d -1 -p ARP -e 28 -c 2 -a 0 -i 0 -k MAC
r -t 1.004172235 -s 1 -d -1 -p CTS -e 38 -c 2 -a 0 -i 0 -k MAC
+ -t 1.004182235 -s 1 -d -1 -p ARP -e 86 -c 2 -a 0 -i 0 -k MAC 
- -t 1.004182235 -s 1 -d -1 -p ARP -e 86 -c 2 -a 0 -i 0 -k MAC
h -t 1.004182235 -s 1 -d -1 -p ARP -e 86 -c 2 -a 0 -i 0 -k MAC
+ -t 1.004254176 -s 10 -d -1 -p RTS -e 44 -c 2 -a 0 -i 0 -k MAC 
- -t 1.004254176 -s 10 -d -1 -p RTS -e 44 -c 2 -a 0 -i 0 -k MAC
h -t 1.004254176 -s 10 -d -1 -p RTS -e 44 -c 2 -a 0 -i 0 -k MAC
+ -t 1.004287608 -s 37 -d -1 -p ARP -e 86 -c 2 -a 0 -i 0 -k MAC 
- -t 1.004287608 -s 37 -d -1 -p ARP -e 86 -c 2 -a 0 -i 0 -k MAC
h -t 1.004287608 -s 37 -d -1 -p ARP -e 86 -c 2 -a 0 -i 0 -k MAC
+ -t 1.004389434 -s 36 -d -1 -p ARP -e 86 -c 2 -a 0 -i 0 -k MAC 
- -t 1.004389434 -s 36 -d -1 -p ARP -e 86 -c 2 -a 0 -i 0 -k MAC
h -t 1.004389434 -s 36 -d -1 -p ARP -e 86 -c 2 -a 0 -i 0 -k MAC
r -t 1.004423128 -s 29 -d -1 -p AODV -e 48 -c 2 -a 0 -i 0 -k MAC
r -t 1.004423201 -s 31 -d -1 -p AODV -e 48 -c 2 -a 0 -i 0 -k MAC
d -t 1.004448128 -s 29 -d 30 -p tcp -e 40 -c 2 -a 0 -i 27 -k IFQ
d -t 1.004448128 -s 29 -d 30 -p cbr -e 1020 -c 2 -a 0 -i 64 -k IFQ
+ -t 1.004493201 -s 31 -d -1 -p AODV -e 106 -c 2 -a 0 -i 0 -k MAC 
- -t 1.004493201 -s 31 -d -1 -p AODV -e 106 -c 2 -a 0 -i 0 -k MAC
h -t 1.004493201 -s 31 -d -1 -p AODV -e 106 -c 2 -a 0 -i 0 -k MAC
r -t 1.004606879 -s 11 -d -1 -p RTS -e 44 -c 2 -a 0 -i 0 -k MAC
+ -t 1.004616879 -s 11 -d -1 -p CTS -e 38 -c 2 -a 0 -i 0 -k MAC 
- -t 1.004616879 -s 11 -d -1 -p CTS -e 38 -c 2 -a 0 -i 0 -k MAC
h -t 1.004616879 -s 11 -d -1 -p CTS -e 38 -c 2 -a 0 -i 0 -k MAC
r -t 1.004707228 -s 6 -d -1 -p AODV -e 48 -c 2 -a 0 -i 0 -k MAC
r -t 1.004707270 -s 4 -d -1 -p AODV -e 48 -c 2 -a 0 -i 0 -k MAC
d -t 1.004732270 -s 4 -d 5 -p tcp -e 40 -c 2 -a 0 -i 4 -k IFQ
d -t 1.004732270 -s 4 -d 5 -p cbr -e 1020 -c 2 -a 0 -i 41 -k IFQ
+ -t 1.004847228 -s 6 -d -1 -p ARP -e 86 -c 2 -a 0 -i 0 -k MAC 
- -t 1.004847228 -s 6 -d -1 -p ARP -e 86 -c 2 -a 0 -i 0 -k MAC
h -t 1.004847228 -s 6 -d -1 -p ARP -e 86 -c 2 -a 0 -i 0 -k MAC
r -t 1.004870882 -s 0 -d -1 -p ARP -e 28 -c 2 -a 0 -i 0 -k MAC
+ -t 1.004880882 -s 0 -d -1 -p ACK -e 38 -c 2 -a 0 -i 0 -k MAC 
- -t 1.004880882 -s 0 -d -1 -p ACK -e 38 -c 2 -a 0 -i 0 -k MAC
h -t 1.004880882 -s 0 -d -1 -p ACK -e 38 -c 2 -a 0 -i 0 -k MAC
r -t 1.004921582 -s 10 -d -1 -p CTS -e 38 -c 2 -a 0 -i 0 -k MAC
+ -t 1.004931582 -s 10 -d -1 -p ARP -e 86 -c 2 -a 0 -i 0 -k MAC 
- -t 1.004931582 -s 10 -d -1 -p ARP -e 86 -c 2 -a 0 -i 0 -k MAC
h -t 1.004931582 -s 10 -d -1 -p ARP -e 86 -c 2 -a 0 -i 0 -k MAC
r -t 1.004976215 -s 38 -d -1 -p ARP -e 28 -c 2 -a 0 -i 0 -k MAC
r -t 1.005077707 -s 35 -d -1 -p ARP -e 28 -c 2 -a 0 -i 0 -k MAC
+ -t 1.005086215 -s 38 -d -1 -p ARP -e 86 -c 2 -a 0 -i 0 -k MAC 
- -t 1.005086215 -s 38 -d -1 -p ARP -e 86 -c 2 -a 0 -i 0 -k MAC
h -t 1.005086215 -s 38 -d -1 -p ARP -e 86 -c 2 -a 0 -i 0 -k MAC
r -t 1.005185529 -s 1 -d -1 -p ACK -e 38 -c 2 -a 0 -i 0 -k MAC
+ -t 1.005287707 -s 35 -d -1 -p RTS -e 44 -c 2 -a 0 -i 0 -k MAC 
- -t 1.005287707 -s 35 -d -1 -p RTS -e 44 -c 2 -a 0 -i 0 -k MAC
h -t 1.005287707 -s 35 -d -1 -p RTS -e 44 -c 2 -a 0 -i 0 -k MAC
r -t 1.005341735 -s 32 -d -1 -p AODV -e 48 -c 2 -a 0 -i 0 -k MAC
r -t 1.005341768 -s 30 -d -1 -p AODV -e 48 -c 2 -a 0 -i 0 -k MAC
+ -t 1.005411201 -s 31 -d -1 -p ARP -e 86 -c 2 -a 0 -i 0 -k MAC 
- -t 1.005411201 -s 31 -d -1 -p ARP -e 86 -c 2 -a 0 -i 0 -k MAC
h -t 1.005411201 -s 31 -d -1 -p ARP -e 86 -c 2 -a 0 -i 0 -k MAC
r -t 1.005535642 -s 7 -d -1 -p ARP -e 28 -c 2 -a 0 -i 0 -k MAC
r -t 1.005535662 -s 5 -d -1 -p ARP -e 28 -c 2 -a 0 -i 0 -k MAC
+ -t 1.005554882 -s 0 -d -1 -p ARP -e 86 -c 2 -a 0 -i 0 -k MAC 
- -t 1.005554882 -s 0 -d -1 -p ARP -e 86 -c 2 -a 0 -i 0 -k MAC
h -t 1.005554882 -s 0 -d -1 -p ARP -e 86 -c 2 -a 0 -i 0 -k MAC
+ -t 1.005605662 -s 5 -d -1 -p AODV -e 106 -c 2 -a 0 -i 0 -k MAC 
- -t 1.005605662 -s 5 -d -1 -p AODV -e 106 -c 2 -a 0 -i 0 -k MAC
h -t 1.005605662 -s 5 -d -1 -p AODV -e 106 -c 2 -a 0 -i 0 -k MAC
r -t 1.005620285 -s 11 -d -1 -p ARP -e 28 -c 2 -a 0 -i 0 -k MAC
+ -t 1.005630285 -s 11 -d -1 -p ACK -e 38 -c 2 -a 0 -i 0 -k MAC 
- -t 1.005630285 -s 11 -d -1 -p ACK -e 38 -c 2 -a 0 -i 0 -k MAC
h -t 1.005630285 -s 11 -d -1 -p ACK -e 38 -c 2 -a 0 -i 0 -k MAC
r -t 1.005639981 -s 36 -d -1 -p RTS -e 44 -c 2 -a 0 -i 0 -k MAC
+ -t 1.005649981 -s 36 -d -1 -p CTS -e 38 -c 2 -a 0 -i 0 -k MAC 
- -t 1.005649981 -s 36 -d -1 -p CTS -e 38 -c 2 -a 0 -i 0 -k MAC
h -t 1.005649981 -s 36 -d -1 -p CTS -e 38 -c 2 -a 0 -i 0 -k MAC
r -t 1.005774762 -s 39 -d -1 -p ARP -e 28 -c 2 -a 0 -i 0 -k MAC
r -t 1.005774823 -s 37 -d -1 -p ARP -e 28 -c 2 -a 0 -i 0 -k MAC
r -t 1.005934988 -s 10 -d -1 -p ACK -e 38 -c 2 -a 0 -i 0 -k MAC
+ -t 1.005944762 -s 39 -d -1 -p AODV -e 106 -c 2 -a 0 -i 0 -k MAC 
- -t 1.005944762 -s 39 -d -1 -p AODV -e 106 -c 2 -a 0 -i 0 -k MAC
h -t 1.005944762 -s 39 -d -1 -p AODV -e 106 -c 2 -a 0 -i 0 -k MAC
r -t 1.005954254 -s 35 -d -1 -p CTS -e 38 -c 2 -a 0 -i 0 -k MAC
+ -t 1.005964254 -s 35 -d -1 -p ARP -e 86 -c 2 -a 0 -i 0 -k MAC 
- -t 1.005964254 -s 35 -d -1 -p ARP -e 86 -c 2 -a 0 -i 0 -k MAC
h -t 1.005964254 -s 35 -d -1 -p ARP -e 86 -c 2 -a 0 -i 0 -k MAC
+ -t 1.006004285 -s 11 -d -1 -p RTS -e 44 -c 2 -a 0 -i 0 -k MAC 
- -t 1.006004285 -s 11 -d -1 -p RTS -e 44 -c 2 -a 0 -i 0 -k MAC
h -t 1.006004285 -s 11 -d -1 -p RTS -e 44 -c 2 -a 0 -i 0 -k MAC
r -t 1.006099735 -s 32 -d -1 -p ARP -e 28 -c 2 -a 0 -i 0 -k MAC
r -t 1.006099768 -s 30 -d -1 -p ARP -e 28 -c 2 -a 0 -i 0 -k MAC
+ -t 1.006169201 -s 31 -d -1 -p ARP -e 86 -c 2 -a 0 -i 0 -k MAC 
- -t 1.006169201 -s 31 -d -1 -p ARP -e 86 -c 2 -a 0 -i 0 -k MAC
h -t 1.006169201 -s 31 -d -1 -p ARP -e 86 -c 2 -a 0 -i 0 -k MAC
r -t 1.006243529 -s 1 -d -1 -p ARP -e 28 -c 2 -a 0 -i 0 -k MAC
r -t 1.006356988 -s 10 -d -1 -p RTS -e 44 -c 2 -a 0 -i 0 -k MAC
+ -t 1.006366988 -s 10 -d -1 -p CTS -e 38 -c 2 -a 0 -i 0 -k MAC 
- -t 1.006366988 -s 10 -d -1 -p CTS -e 38 -c 2 -a 0 -i 0 -k MAC
h -t 1.006366988 -s 10 -d -1 -p CTS -e 38 -c 2 -a 0 -i 0 -k MAC
+ -t 1.006413529 -s 1 -d -1 -p RTS -e 44 -c 2 -a 0 -i 0 -k MAC 
- -t 1.006413529 -s 1 -d -1 -p RTS -e 44 -c 2 -a 0 -i 0 -k MAC
h -t 1.006413529 -s 1 -d -1 -p RTS -e 44 -c 2 -a 0 -i 0 -k MAC
r -t 1.006454095 -s 6 -d -1 -p AODV -e 48 -c 2 -a 0 -i 0 -k MAC
r -t 1.006454136 -s 4 -d -1 -p AODV -e 48 -c 2 -a 0 -i 0 -k MAC
r -t 1.006652527 -s 36 -d -1 -p ARP -e 28 -c 2 -a 0 -i 0 -k MAC
+ -t 1.006662527 -s 36 -d -1 -p ACK -e 38 -c 2 -a 0 -i 0 -k MAC 
- -t 1.006662527 -s 36 -d -1 -p ACK -e 38 -c 2 -a 0 -i 0 -k MAC
h -t 1.006662527 -s 36 -d -1 -p ACK -e 38 -c 2 -a 0 -i 0 -k MAC
r -t 1.006671691 -s 11 -d -1 -p CTS -e 38 -c 2 -a 0 -i 0 -k MAC
+ -t 1.006681691 -s 11 -d 10 -p AODV -e 102 -c 2 -a 0 -i 0 -k MAC 
- -t 1.006681691 -s 11 -d 10 -p AODV -e 102 -c 2 -a 0 -i 0 -k MAC
h -t 1.006681691 -s 11 -d 10 -p AODV -e 102 -c 2 -a 0 -i 0 -k MAC
+ -t 1.006704136 -s 4 -d -1 -p ARP -e 86 -c 2 -a 0 -i 0 -k MAC 
- -t 1.006704136 -s 4 -d -1 -p ARP -e 86 -c 2 -a 0 -i 0 -k MAC
h -t 1.006704136 -s 4 -d -1 -p ARP -e 86 -c 2 -a 0 -i 0 -k MAC
r -t 1.006766176 -s 0 -d -1 -p RTS -e 44 -c 2 -a 0 -i 0 -k MAC
+ -t 1.006776176 -s 0 -d -1 -p CTS -e 38 -c 2 -a 0 -i 0 -k MAC 
- -t 1.006776176 -s 0 -d -1 -p CTS -e 38 -c 2 -a 0 -i 0 -k MAC
h -t 1.006776176 -s 0 -d -1 -p CTS -e 38 -c 2 -a 0 -i 0 -k MAC
r -t 1.006793308 -s 38 -d -1 -p AODV -e 48 -c 2 -a 0 -i 0 -k MAC
r -t 1.006793422 -s 40 -d -1 -p AODV -e 48 -c 2 -a 0 -i 0 -k MAC
d -t 1.006818308 -s 38 -d 39 -p tcp -e 40 -c 2 -a 0 -i 35 -k IFQ
d -t 1.006818308 -s 38 -d 39 -p cbr -e 1020 -c 2 -a 0 -i 72 -k IFQ
r -t 1.006857735 -s 32 -d -1 -p ARP -e 28 -c 2 -a 0 -i 0 -k MAC
r -t 1.006857768 -s 30 -d -1 -p ARP -e 28 -c 2 -a 0 -i 0 -k MAC
r -t 1.006966801 -s 35 -d -1 -p ACK -e 38 -c 2 -a 0 -i 0 -k MAC
+ -t 1.006983308 -s 38 -d -1 -p RTS -e 44 -c 2 -a 0 -i 0 -k MAC 
- -t 1.006983308 -s 38 -d -1 -p RTS -e 44 -c 2 -a 0 -i 0 -k MAC
h -t 1.006983308 -s 38 -d -1 -p RTS -e 44 -c 2 -a 0 -i 0 -k MAC
r -t 1.007080823 -s 1 -d -1 -p CTS -e 38 -c 2 -a 0 -i 0 -k MAC
+ -t 1.007090823 -s 1 -d -1 -p ARP -e 86 -c 2 -a 0 -i 0 -k MAC 
- -t 1.007090823 -s 1 -d -1 -p ARP -e 86 -c 2 -a 0 -i 0 -k MAC
h -t 1.007090823 -s 1 -d -1 -p ARP -e 86 -c 2 -a 0 -i 0 -k MAC
d -t 1.007092018 -s 3 -d -1 -p ARP -e 86 -c 2 -a 0 -i 0 -k MAC
r -t 1.007335916 -s 37 -d -1 -p RTS -e 44 -c 2 -a 0 -i 0 -k MAC
+ -t 1.007345916 -s 37 -d -1 -p CTS -e 38 -c 2 -a 0 -i 0 -k MAC 
- -t 1.007345916 -s 37 -d -1 -p CTS -e 38 -c 2 -a 0 -i 0 -k MAC
h -t 1.007345916 -s 37 -d -1 -p CTS -e 38 -c 2 -a 0 -i 0 -k MAC
+ -t 1.007352495 -s 20 -d -1 -p AODV -e 106 -c 2 -a 0 -i 0 -k MAC 
- -t 1.007352495 -s 20 -d -1 -p AODV -e 106 -c 2 -a 0 -i 0 -k MAC
h -t 1.007352495 -s 20 -d -1 -p AODV -e 106 -c 2 -a 0 -i 0 -k MAC
+ -t 1.007372648 -s 28 -d -1 -p AODV -e 106 -c 2 -a 0 -i 0 -k MAC 
- -t 1.007372648 -s 28 -d -1 -p AODV -e 106 -c 2 -a 0 -i 0 -k MAC
h -t 1.007372648 -s 28 -d -1 -p AODV -e 106 -c 2 -a 0 -i 0 -k MAC
r -t 1.007392611 -s 5 -d -1 -p ARP -e 28 -c 2 -a 0 -i 0 -k MAC
+ -t 1.007456527 -s 36 -d -1 -p RTS -e 44 -c 2 -a 0 -i 0 -k MAC 
- -t 1.007456527 -s 36 -d -1 -p RTS -e 44 -c 2 -a 0 -i 0 -k MAC
h -t 1.007456527 -s 36 -d -1 -p RTS -e 44 -c 2 -a 0 -i 0 -k MAC
r -t 1.007498395 -s 10 -d 10 -p AODV -e 44 -c 2 -a 0 -i 0 -k MAC
+ -t 1.007508395 -s 10 -d -1 -p ACK -e 38 -c 2 -a 0 -i 0 -k MAC 
- -t 1.007508395 -s 10 -d -1 -p ACK -e 38 -c 2 -a 0 -i 0 -k MAC
h -t 1.007508395 -s 10 -d -1 -p ACK -e 38 -c 2 -a 0 -i 0 -k MAC
+ -t 1.007582136 -s 4 -d -1 -p AODV -e 106 -c 2 -a 0 -i 0 -k MAC 
- -t 1.007582136 -s 4 -d -1 -p AODV -e 106 -c 2 -a 0 -i 0 -k MAC
h -t 1.007582136 -s 4 -d -1 -p AODV -e 106 -c 2 -a 0 -i 0 -k MAC
r -t 1.007650524 -s 38 -d -1 -p CTS -e 38 -c 2 -a 0 -i 0 -k MAC
+ -t 1.007660524 -s 38 -d 37 -p AODV -e 102 -c 2 -a 0 -i 0 -k MAC 
- -t 1.007660524 -s 38 -d 37 -p AODV -e 102 -c 2 -a 0 -i 0 -k MAC
h -t 1.007660524 -s 38 -d 37 -p AODV -e 102 -c 2 -a 0 -i 0 -k MAC
r -t 1.007779470 -s 0 -d -1 -p ARP -e 28 -c 2 -a 0 -i 0 -k MAC
+ -t 1.007789470 -s 0 -d -1 -p ACK -e 38 -c 2 -a 0 -i 0 -k MAC 
- -t 1.007789470 -s 0 -d -1 -p ACK -e 38 -c 2 -a 0 -i 0 -k MAC
h -t 1.007789470 -s 0 -d -1 -p ACK -e 38 -c 2 -a 0 -i 0 -k MAC
r -t 1.007808801 -s 35 -d -1 -p RTS -e 44 -c 2 -a 0 -i 0 -k MAC
r -t 1.007813098 -s 11 -d -1 -p ACK -e 38 -c 2 -a 0 -i 0 -k MAC
+ -t 1.007818801 -s 35 -d -1 -p CTS -e 38 -c 2 -a 0 -i 0 -k MAC 
- -t 1.007818801 -s 35 -d -1 -p CTS -e 38 -c 2 -a 0 -i 0 -k MAC
h -t 1.007818801 -s 35 -d -1 -p CTS -e 38 -c 2 -a 0 -i 0 -k MAC
r -t 1.008094117 -s 1 -d -1 -p ACK -e 38 -c 2 -a 0 -i 0 -k MAC
r -t 1.008123074 -s 36 -d -1 -p CTS -e 38 -c 2 -a 0 -i 0 -k MAC
+ -t 1.008133074 -s 36 -d 35 -p AODV -e 102 -c 2 -a 0 -i 0 -k MAC 
- -t 1.008133074 -s 36 -d 35 -p AODV -e 102 -c 2 -a 0 -i 0 -k MAC
h -t 1.008133074 -s 36 -d 35 -p AODV -e 102 -c 2 -a 0 -i 0 -k MAC
d -t 1.008201055 -s 19 -d -1 -p AODV -e 106 -c 2 -a 0 -i 0 -k MAC
d -t 1.008201142 -s 21 -d -1 -p AODV -e 106 -c 2 -a 0 -i 0 -k MAC
r -t 1.008221035 -s 29 -d -1 -p AODV -e 48 -c 2 -a 0 -i 0 -k MAC
r -t 1.008221201 -s 27 -d -1 -p AODV -e 48 -c 2 -a 0 -i 0 -k MAC
d -t 1.008246201 -s 27 -d 28 -p tcp -e 40 -c 2 -a 0 -i 25 -k IFQ
d -t 1.008246201 -s 27 -d 28 -p cbr -e 1020 -c 2 -a 0 -i 62 -k IFQ
+ -t 1.008391035 -s 29 -d -1 -p AODV -e 106 -c 2 -a 0 -i 0 -k MAC 
- -t 1.008391035 -s 29 -d -1 -p AODV -e 106 -c 2 -a 0 -i 0 -k MAC
h -t 1.008391035 -s 29 -d -1 -p AODV -e 106 -c 2 -a 0 -i 0 -k MAC
+ -t 1.008403470 -s 0 -d -1 -p AODV -e 106 -c 2 -a 0 -i 0 -k MAC 
- -t 1.008403470 -s 0 -d -1 -p AODV -e 106 -c 2 -a 0 -i 0 -k MAC
h -t 1.008403470 -s 0 -d -1 -p AODV -e 106 -c 2 -a 0 -i 0 -k MAC
r -t 1.008430611 -s 5 -d -1 -p AODV -e 48 -c 2 -a 0 -i 0 -k MAC
d -t 1.008430810 -s 3 -d -1 -p AODV -e 106 -c 2 -a 0 -i 0 -k MAC
r -t 1.008477131 -s 37 -d 37 -p AODV -e 44 -c 2 -a 0 -i 0 -k MAC
+ -t 1.008487131 -s 37 -d -1 -p ACK -e 38 -c 2 -a 0 -i 0 -k MAC 
- -t 1.008487131 -s 37 -d -1 -p ACK -e 38 -c 2 -a 0 -i 0 -k MAC
h -t 1.008487131 -s 37 -d -1 -p ACK -e 38 -c 2 -a 0 -i 0 -k MAC
r -t 1.008791739 -s 38 -d -1 -p ACK -e 38 -c 2 -a 0 -i 0 -k MAC
+ -t 1.008855969 -s 10 -d -1 -p RTS -e 44 -c 2 -a 0 -i 0 -k MAC 
- -t 1.008855969 -s 10 -d -1 -p RTS -e 44 -c 2 -a 0 -i 0 -k MAC
h -t 1.008855969 -s 10 -d -1 -p RTS -e 44 -c 2 -a 0 -i 0 -k MAC
+ -t 1.008856130 -s 5 -d -1 -p ARP -e 86 -c 2 -a 0 -i 0 -k MAC 
- -t 1.008856130 -s 5 -d -1 -p ARP -e 86 -c 2 -a 0 -i 0 -k MAC
h -t 1.008856130 -s 5 -d -1 -p ARP -e 86 -c 2 -a 0 -i 0 -k MAC
r -t 1.008949347 -s 35 -d 35 -p AODV -e 44 -c 2 -a 0 -i 0 -k MAC
+ -t 1.008959347 -s 35 -d -1 -p ACK -e 38 -c 2 -a 0 -i 0 -k MAC 
- -t 1.008959347 -s 35 -d -1 -p ACK -e 38 -c 2 -a 0 -i 0 -k MAC
h -t 1.008959347 -s 35 -d -1 -p ACK -e 38 -c 2 -a 0 -i 0 -k MAC
+ -t 1.009061739 -s 38 -d -1 -p RTS -e 44 -c 2 -a 0 -i 0 -k MAC 
- -t 1.009061739 -s 38 -d -1 -p RTS -e 44 -c 2 -a 0 -i 0 -k MAC
h -t 1.009061739 -s 38 -d -1 -p RTS -e 44 -c 2 -a 0 -i 0 -k MAC
r -t 1.009208673 -s 11 -d -1 -p RTS -e 44 -c 2 -a 0 -i 0 -k MAC
+ -t 1.009218673 -s 11 -d -1 -p CTS -e 38 -c 2 -a 0 -i 0 -k MAC 
- -t 1.009218673 -s 11 -d -1 -p CTS -e 38 -c 2 -a 0 -i 0 -k MAC
h -t 1.009218673 -s 11 -d -1 -p CTS -e 38 -c 2 -a 0 -i 0 -k MAC
r -t 1.009239422 -s 28 -d -1 -p AODV -e 48 -c 2 -a 0 -i 0 -k MAC
r -t 1.009239528 -s 30 -d -1 -p AODV -e 48 -c 2 -a 0 -i 0 -k MAC
r -t 1.009252117 -s 1 -d -1 -p AODV -e 48 -c 2 -a 0 -i 0 -k MAC
r -t 1.009263621 -s 36 -d -1 -p ACK -e 38 -c 2 -a 0 -i 0 -k MAC
d -t 1.009264422 -s 28 -d 29 -p tcp -e 40 -c 2 -a 0 -i 26 -k IFQ
d -t 1.009264422 -s 28 -d 29 -p cbr -e 1020 -c 2 -a 0 -i 63 -k IFQ
r -t 1.009414346 -s 37 -d -1 -p RTS -e 44 -c 2 -a 0 -i 0 -k MAC
+ -t 1.009424346 -s 37 -d -1 -p CTS -e 38 -c 2 -a 0 -i 0 -k MAC 
- -t 1.009424346 -s 37 -d -1 -p CTS -e 38 -c 2 -a 0 -i 0 -k MAC
h -t 1.009424346 -s 37 -d -1 -p CTS -e 38 -c 2 -a 0 -i 0 -k MAC
+ -t 1.009429035 -s 29 -d -1 -p ARP -e 86 -c 2 -a 0 -i 0 -k MAC 
- -t 1.009429035 -s 29 -d -1 -p ARP -e 86 -c 2 -a 0 -i 0 -k MAC
h -t 1.009429035 -s 29 -d -1 -p ARP -e 86 -c 2 -a 0 -i 0 -k MAC
+ -t 1.009483941 -s 34 -d -1 -p AODV -e 106 -c 2 -a 0 -i 0 -k MAC 
- -t 1.009483941 -s 34 -d -1 -p AODV -e 106 -c 2 -a 0 -i 0 -k MAC
h -t 1.009483941 -s 34 -d -1 -p AODV -e 106 -c 2 -a 0 -i 0 -k MAC
r -t 1.009523376 -s 10 -d -1 -p CTS -e 38 -c 2 -a 0 -i 0 -k MAC
+ -t 1.009533376 -s 10 -d 11 -p tcp -e 98 -c 2 -a 0 -i 10 -k MAC 
- -t 1.009533376 -s 10 -d 11 -p tcp -e 98 -c 2 -a 0 -i 10 -k MAC
h -t 1.009533376 -s 10 -d 11 -p tcp -e 98 -c 2 -a 0 -i 10 -k MAC
+ -t 1.009541470 -s 0 -d -1 -p ARP -e 86 -c 2 -a 0 -i 0 -k MAC 
- -t 1.009541470 -s 0 -d -1 -p ARP -e 86 -c 2 -a 0 -i 0 -k MAC
h -t 1.009541470 -s 0 -d -1 -p ARP -e 86 -c 2 -a 0 -i 0 -k MAC
r -t 1.009544563 -s 6 -d -1 -p ARP -e 28 -c 2 -a 0 -i 0 -k MAC
r -t 1.009544604 -s 4 -d -1 -p ARP -e 28 -c 2 -a 0 -i 0 -k MAC
+ -t 1.009594130 -s 5 -d -1 -p RTS -e 44 -c 2 -a 0 -i 0 -k MAC 
- -t 1.009594130 -s 5 -d -1 -p RTS -e 44 -c 2 -a 0 -i 0 -k MAC
h -t 1.009594130 -s 5 -d -1 -p RTS -e 44 -c 2 -a 0 -i 0 -k MAC
r -t 1.009728954 -s 38 -d -1 -p CTS -e 38 -c 2 -a 0 -i 0 -k MAC
+ -t 1.009738954 -s 38 -d -1 -p ARP -e 86 -c 2 -a 0 -i 0 -k MAC 
- -t 1.009738954 -s 38 -d -1 -p ARP -e 86 -c 2 -a 0 -i 0 -k MAC
h -t 1.009738954 -s 38 -d -1 -p ARP -e 86 -c 2 -a 0 -i 0 -k MAC
r -t 1.009946604 -s 4 -d -1 -p RTS -e 44 -c 2 -a 0 -i 0 -k MAC
+ -t 1.009956604 -s 4 -d -1 -p CTS -e 38 -c 2 -a 0 -i 0 -k MAC 
- -t 1.009956604 -s 4 -d -1 -p CTS -e 38 -c 2 -a 0 -i 0 -k MAC
h -t 1.009956604 -s 4 -d -1 -p CTS -e 38 -c 2 -a 0 -i 0 -k MAC
r -t 1.010117422 -s 28 -d -1 -p ARP -e 28 -c 2 -a 0 -i 0 -k MAC
r -t 1.010117528 -s 30 -d -1 -p ARP -e 28 -c 2 -a 0 -i 0 -k MAC
r -t 1.010230117 -s 1 -d -1 -p ARP -e 28 -c 2 -a 0 -i 0 -k MAC
+ -t 1.010247528 -s 30 -d -1 -p ARP -e 86 -c 2 -a 0 -i 0 -k MAC 
- -t 1.010247528 -s 30 -d -1 -p ARP -e 86 -c 2 -a 0 -i 0 -k MAC
h -t 1.010247528 -s 30 -d -1 -p ARP -e 86 -c 2 -a 0 -i 0 -k MAC
r -t 1.010261079 -s 5 -d -1 -p CTS -e 38 -c 2 -a 0 -i 0 -k MAC
+ -t 1.010271079 -s 5 -d 4 -p AODV -e 102 -c 2 -a 0 -i 0 -k MAC 
- -t 1.010271079 -s 5 -d 4 -p AODV -e 102 -c 2 -a 0 -i 0 -k MAC
h -t 1.010271079 -s 5 -d 4 -p AODV -e 102 -c 2 -a 0 -i 0 -k MAC
+ -t 1.010285117 -s 1 -d -1 -p RTS -e 44 -c 2 -a 0 -i 0 -k MAC 
- -t 1.010285117 -s 1 -d -1 -p RTS -e 44 -c 2 -a 0 -i 0 -k MAC
h -t 1.010285117 -s 1 -d -1 -p RTS -e 44 -c 2 -a 0 -i 0 -k MAC
r -t 1.010318079 -s 11 -d 11 -p tcp -e 40 -c 2 -a 0 -i 10 -k MAC
+ -t 1.010328079 -s 11 -d -1 -p ACK -e 38 -c 2 -a 0 -i 0 -k MAC 
- -t 1.010328079 -s 11 -d -1 -p ACK -e 38 -c 2 -a 0 -i 0 -k MAC
h -t 1.010328079 -s 11 -d -1 -p ACK -e 38 -c 2 -a 0 -i 0 -k MAC
r -t 1.010332387 -s 33 -d -1 -p AODV -e 48 -c 2 -a 0 -i 0 -k MAC
r -t 1.010332534 -s 35 -d -1 -p AODV -e 48 -c 2 -a 0 -i 0 -k MAC
d -t 1.010357387 -s 33 -d 34 -p tcp -e 40 -c 2 -a 0 -i 31 -k IFQ
d -t 1.010357387 -s 33 -d 34 -p cbr -e 1020 -c 2 -a 0 -i 68 -k IFQ
r -t 1.010427562 -s 37 -d -1 -p ARP -e 28 -c 2 -a 0 -i 0 -k MAC
+ -t 1.010437562 -s 37 -d -1 -p ACK -e 38 -c 2 -a 0 -i 0 -k MAC 
- -t 1.010437562 -s 37 -d -1 -p ACK -e 38 -c 2 -a 0 -i 0 -k MAC
h -t 1.010437562 -s 37 -d -1 -p ACK -e 38 -c 2 -a 0 -i 0 -k MAC
r -t 1.010632782 -s 10 -d -1 -p ACK -e 38 -c 2 -a 0 -i 0 -k MAC
r -t 1.010637764 -s 0 -d -1 -p RTS -e 44 -c 2 -a 0 -i 0 -k MAC
+ -t 1.010647764 -s 0 -d -1 -p CTS -e 38 -c 2 -a 0 -i 0 -k MAC 
- -t 1.010647764 -s 0 -d -1 -p CTS -e 38 -c 2 -a 0 -i 0 -k MAC
h -t 1.010647764 -s 0 -d -1 -p CTS -e 38 -c 2 -a 0 -i 0 -k MAC
r -t 1.010742169 -s 38 -d -1 -p ACK -e 38 -c 2 -a 0 -i 0 -k MAC
+ -t 1.010742534 -s 35 -d -1 -p RTS -e 44 -c 2 -a 0 -i 0 -k MAC 
- -t 1.010742534 -s 35 -d -1 -p RTS -e 44 -c 2 -a 0 -i 0 -k MAC
h -t 1.010742534 -s 35 -d -1 -p RTS -e 44 -c 2 -a 0 -i 0 -k MAC
+ -t 1.010842079 -s 11 -d -1 -p RTS -e 44 -c 2 -a 0 -i 0 -k MAC 
- -t 1.010842079 -s 11 -d -1 -p RTS -e 44 -c 2 -a 0 -i 0 -k MAC
h -t 1.010842079 -s 11 -d -1 -p RTS -e 44 -c 2 -a 0 -i 0 -k MAC
+ -t 1.010911562 -s 37 -d -1 -p AODV -e 106 -c 2 -a 0 -i 0 -k MAC 
- -t 1.010911562 -s 37 -d -1 -p AODV -e 106 -c 2 -a 0 -i 0 -k MAC
h -t 1.010911562 -s 37 -d -1 -p AODV -e 106 -c 2 -a 0 -i 0 -k MAC
r -t 1.010936022 -s 29 -d -1 -p ARP -e 28 -c 2 -a 0 -i 0 -k MAC
d -t 1.010936095 -s 31 -d -1 -p ARP -e 86 -c 2 -a 0 -i 0 -k MAC
r -t 1.010952411 -s 1 -d -1 -p CTS -e 38 -c 2 -a 0 -i 0 -k MAC
+ -t 1.010962411 -s 1 -d -1 -p ARP -e 86 -c 2 -a 0 -i 0 -k MAC 
- -t 1.010962411 -s 1 -d -1 -p ARP -e 86 -c 2 -a 0 -i 0 -k MAC
h -t 1.010962411 -s 1 -d -1 -p ARP -e 86 -c 2 -a 0 -i 0 -k MAC
r -t 1.011087553 -s 4 -d 4 -p AODV -e 44 -c 2 -a 0 -i 0 -k MAC
r -t 1.011094807 -s 36 -d -1 -p RTS -e 44 -c 2 -a 0 -i 0 -k MAC
+ -t 1.011097553 -s 4 -d -1 -p ACK -e 38 -c 2 -a 0 -i 0 -k MAC 
- -t 1.011097553 -s 4 -d -1 -p ACK -e 38 -c 2 -a 0 -i 0 -k MAC
h -t 1.011097553 -s 4 -d -1 -p ACK -e 38 -c 2 -a 0 -i 0 -k MAC
+ -t 1.011104807 -s 36 -d -1 -p CTS -e 38 -c 2 -a 0 -i 0 -k MAC 
- -t 1.011104807 -s 36 -d -1 -p CTS -e 38 -c 2 -a 0 -i 0 -k MAC
h -t 1.011104807 -s 36 -d -1 -p CTS -e 38 -c 2 -a 0 -i 0 -k MAC
+ -t 1.011125528 -s 30 -d -1 -p RTS -e 44 -c 2 -a 0 -i 0 -k MAC 
- -t 1.011125528 -s 30 -d -1 -p RTS -e 44 -c 2 -a 0 -i 0 -k MAC
h -t 1.011125528 -s 30 -d -1 -p RTS -e 44 -c 2 -a 0 -i 0 -k MAC
r -t 1.011194782 -s 10 -d -1 -p RTS -e 44 -c 2 -a 0 -i 0 -k MAC
+ -t 1.011204782 -s 10 -d -1 -p CTS -e 38 -c 2 -a 0 -i 0 -k MAC 
- -t 1.011204782 -s 10 -d -1 -p CTS -e 38 -c 2 -a 0 -i 0 -k MAC
h -t 1.011204782 -s 10 -d -1 -p CTS -e 38 -c 2 -a 0 -i 0 -k MAC
r -t 1.011402028 -s 5 -d -1 -p ACK -e 38 -c 2 -a 0 -i 0 -k MAC
r -t 1.011409081 -s 35 -d -1 -p CTS -e 38 -c 2 -a 0 -i 0 -k MAC
+ -t 1.011419081 -s 35 -d 36 -p tcp -e 98 -c 2 -a 0 -i 33 -k MAC 
- -t 1.011419081 -s 35 -d 36 -p tcp -e 98 -c 2 -a 0 -i 33 -k MAC