n -t * -s 0  -x 448 -y 748 -Z 0 -z 20  -v circle -c black
n -t * -s 1  -x 640 -y 748 -Z 0 -z 20  -v circle -c black
n -t * -s 2  -x 560 -y 596 -Z 0 -z 20  -v circle -c black
n -t * -s 3  -x 740 -y 592 -Z 0 -z 20  -v circle -c black
n -t * -s 4  -x 870 -y 732 -Z 0 -z 20  -v circle -c black
n -t * -s 5  -x 928 -y 620 -Z 0 -z 20  -v circle -c black
n -t * -s 6  -x 792 -y 468 -Z 0 -z 20  -v circle -c black
n -t * -s 7  -x 626 -y 448 -Z 0 -z 20  -v circle -c black
n -t * -s 8  -x 474 -y 444 -Z 0 -z 20  -v circle -c black
n -t * -s 9  -x 362 -y 578 -Z 0 -z 20  -v circle -c black
n -t * -s 10  -x 1014 -y 492 -Z 0 -z 20  -v circle -c black
n -t * -s 11  -x 1082 -y 654 -Z 0 -z 20  -v circle -c black
n -t * -s 12  -x 1186 -y 792 -Z 0 -z 20  -v circle -c black
n -t * -s 13  -x 1194 -y 608 -Z 0 -z 20  -v circle -c black
n -t * -s 14  -x 1040 -y 806 -Z 0 -z 20  -v circle -c black
n -t * -s 15  -x 788 -y 880 -Z 0 -z 20  -v circle -c black
n -t * -s 16  -x 936 -y 916 -Z 0 -z 20  -v circle -c black
n -t * -s 17  -x 618 -y 930 -Z 0 -z 20  -v circle -c black
n -t * -s 18  -x 790 -y 1042 -Z 0 -z 20  -v circle -c black
n -t * -s 19  -x 1234 -y 946 -Z 0 -z 20  -v circle -c black
n -t * -s 20  -x 1104 -y 1040 -Z 0 -z 20  -v circle -c black
n -t * -s 21  -x 946 -y 1090 -Z 0 -z 20  -v circle -c black
n -t * -s 22  -x 1310 -y 586 -Z 0 -z 20  -v circle -c black
n -t * -s 23  -x 1242 -y 450 -Z 0 -z 20  -v circle -c black
n -t * -s 24  -x 936 -y 316 -Z 0 -z 20  -v circle -c black
n -t * -s 25  -x 1146 -y 306 -Z 0 -z 20  -v circle -c black
n -t * -s 26  -x 680 -y 286 -Z 0 -z 20  -v circle -c black
n -t * -s 27  -x 444 -y 306 -Z 0 -z 20  -v circle -c black
n -t * -s 28  -x 818 -y 200 -Z 0 -z 20  -v circle -c black
n -t * -s 29  -x 994 -y 192 -Z 0 -z 20  -v circle -c black
n -t * -s 30  -x 1200 -y 148 -Z 0 -z 20  -v circle -c black
V -t * -v 1.0a5 -a 0
W -t * -x 1000 -y 1000
A -t * -n 1 -p 0 -o 0x7fffffff -c 30 -a 1
A -t * -h 1 -m 1073741823 -s 0
+ -t 0.023999017 -s 13 -d -1 -p message -e 90 -c 2 -a 0 -i 0 -k MAC 
- -t 0.023999017 -s 13 -d -1 -p message -e 90 -c 2 -a 0 -i 0 -k MAC
h -t 0.023999017 -s 13 -d -1 -p message -e 90 -c 2 -a 0 -i 0 -k MAC
r -t 0.024719410 -s 22 -d -1 -p message -e 32 -c 2 -a 0 -i 0 -k MAC
r -t 0.024719420 -s 11 -d -1 -p message -e 32 -c 2 -a 0 -i 0 -k MAC
r -t 0.024719567 -s 23 -d -1 -p message -e 32 -c 2 -a 0 -i 0 -k MAC
r -t 0.024719631 -s 12 -d -1 -p message -e 32 -c 2 -a 0 -i 0 -k MAC
r -t 0.024719731 -s 10 -d -1 -p message -e 32 -c 2 -a 0 -i 0 -k MAC
+ -t 0.056563514 -s 25 -d -1 -p message -e 90 -c 2 -a 0 -i 1 -k MAC 
- -t 0.056563514 -s 25 -d -1 -p message -e 90 -c 2 -a 0 -i 1 -k MAC
h -t 0.056563514 -s 25 -d -1 -p message -e 90 -c 2 -a 0 -i 1 -k MAC
r -t 0.057284071 -s 30 -d -1 -p message -e 32 -c 2 -a 0 -i 1 -k MAC
r -t 0.057284091 -s 23 -d -1 -p message -e 32 -c 2 -a 0 -i 1 -k MAC
r -t 0.057284147 -s 29 -d -1 -p message -e 32 -c 2 -a 0 -i 1 -k MAC
r -t 0.057284215 -s 24 -d -1 -p message -e 32 -c 2 -a 0 -i 1 -k MAC
r -t 0.057284274 -s 10 -d -1 -p message -e 32 -c 2 -a 0 -i 1 -k MAC
+ -t 0.122289241 -s 12 -d -1 -p message -e 90 -c 2 -a 0 -i 2 -k MAC 
- -t 0.122289241 -s 12 -d -1 -p message -e 90 -c 2 -a 0 -i 2 -k MAC
h -t 0.122289241 -s 12 -d -1 -p message -e 90 -c 2 -a 0 -i 2 -k MAC
r -t 0.123009729 -s 14 -d -1 -p message -e 32 -c 2 -a 0 -i 2 -k MAC
r -t 0.123009778 -s 19 -d -1 -p message -e 32 -c 2 -a 0 -i 2 -k MAC
r -t 0.123009817 -s 11 -d -1 -p message -e 32 -c 2 -a 0 -i 2 -k MAC
r -t 0.123009854 -s 13 -d -1 -p message -e 32 -c 2 -a 0 -i 2 -k MAC
r -t 0.123010042 -s 22 -d -1 -p message -e 32 -c 2 -a 0 -i 2 -k MAC
+ -t 0.226735945 -s 5 -d -1 -p message -e 90 -c 2 -a 0 -i 3 -k MAC 
- -t 0.226735945 -s 5 -d -1 -p message -e 90 -c 2 -a 0 -i 3 -k MAC
h -t 0.226735945 -s 5 -d -1 -p message -e 90 -c 2 -a 0 -i 3 -k MAC
r -t 0.227456366 -s 4 -d -1 -p message -e 32 -c 2 -a 0 -i 3 -k MAC
r -t 0.227456459 -s 10 -d -1 -p message -e 32 -c 2 -a 0 -i 3 -k MAC
r -t 0.227456471 -s 11 -d -1 -p message -e 32 -c 2 -a 0 -i 3 -k MAC
r -t 0.227456579 -s 3 -d -1 -p message -e 32 -c 2 -a 0 -i 3 -k MAC
r -t 0.227456625 -s 6 -d -1 -p message -e 32 -c 2 -a 0 -i 3 -k MAC
r -t 0.227456669 -s 14 -d -1 -p message -e 32 -c 2 -a 0 -i 3 -k MAC
+ -t 0.231998049 -s 11 -d -1 -p message -e 90 -c 2 -a 0 -i 4 -k MAC 
- -t 0.231998049 -s 11 -d -1 -p message -e 90 -c 2 -a 0 -i 4 -k MAC
h -t 0.231998049 -s 11 -d -1 -p message -e 90 -c 2 -a 0 -i 4 -k MAC
r -t 0.232718453 -s 13 -d -1 -p message -e 32 -c 2 -a 0 -i 4 -k MAC
r -t 0.232718575 -s 14 -d -1 -p message -e 32 -c 2 -a 0 -i 4 -k MAC
r -t 0.232718575 -s 5 -d -1 -p message -e 32 -c 2 -a 0 -i 4 -k MAC
r -t 0.232718625 -s 12 -d -1 -p message -e 32 -c 2 -a 0 -i 4 -k MAC
r -t 0.232718635 -s 10 -d -1 -p message -e 32 -c 2 -a 0 -i 4 -k MAC
r -t 0.232718802 -s 4 -d -1 -p message -e 32 -c 2 -a 0 -i 4 -k MAC
r -t 0.232718842 -s 22 -d -1 -p message -e 32 -c 2 -a 0 -i 4 -k MAC
+ -t 0.252406078 -s 16 -d -1 -p message -e 90 -c 2 -a 0 -i 5 -k MAC 
- -t 0.252406078 -s 16 -d -1 -p message -e 90 -c 2 -a 0 -i 5 -k MAC
h -t 0.252406078 -s 16 -d -1 -p message -e 90 -c 2 -a 0 -i 5 -k MAC
r -t 0.253126582 -s 14 -d -1 -p message -e 32 -c 2 -a 0 -i 5 -k MAC
r -t 0.253126585 -s 15 -d -1 -p message -e 32 -c 2 -a 0 -i 5 -k MAC
r -t 0.253126658 -s 21 -d -1 -p message -e 32 -c 2 -a 0 -i 5 -k MAC
r -t 0.253126720 -s 18 -d -1 -p message -e 32 -c 2 -a 0 -i 5 -k MAC
r -t 0.253126729 -s 4 -d -1 -p message -e 32 -c 2 -a 0 -i 5 -k MAC
r -t 0.253126774 -s 20 -d -1 -p message -e 32 -c 2 -a 0 -i 5 -k MAC
+ -t 0.374343391 -s 27 -d -1 -p message -e 90 -c 2 -a 0 -i 6 -k MAC 
- -t 0.374343391 -s 27 -d -1 -p message -e 90 -c 2 -a 0 -i 6 -k MAC
h -t 0.374343391 -s 27 -d -1 -p message -e 90 -c 2 -a 0 -i 6 -k MAC
r -t 0.375063862 -s 8 -d -1 -p message -e 32 -c 2 -a 0 -i 6 -k MAC
r -t 0.375064161 -s 7 -d -1 -p message -e 32 -c 2 -a 0 -i 6 -k MAC
r -t 0.375064181 -s 26 -d -1 -p message -e 32 -c 2 -a 0 -i 6 -k MAC
+ -t 0.378721522 -s 7 -d -1 -p message -e 90 -c 2 -a 0 -i 7 -k MAC 
- -t 0.378721522 -s 7 -d -1 -p message -e 90 -c 2 -a 0 -i 7 -k MAC
h -t 0.378721522 -s 7 -d -1 -p message -e 90 -c 2 -a 0 -i 7 -k MAC
r -t 0.379442029 -s 8 -d -1 -p message -e 32 -c 2 -a 0 -i 7 -k MAC
r -t 0.379442062 -s 2 -d -1 -p message -e 32 -c 2 -a 0 -i 7 -k MAC
r -t 0.379442079 -s 6 -d -1 -p message -e 32 -c 2 -a 0 -i 7 -k MAC
r -t 0.379442091 -s 26 -d -1 -p message -e 32 -c 2 -a 0 -i 7 -k MAC
r -t 0.379442134 -s 3 -d -1 -p message -e 32 -c 2 -a 0 -i 7 -k MAC
r -t 0.379442292 -s 27 -d -1 -p message -e 32 -c 2 -a 0 -i 7 -k MAC
+ -t 0.523301871 -s 18 -d -1 -p message -e 90 -c 2 -a 0 -i 8 -k MAC 
- -t 0.523301871 -s 18 -d -1 -p message -e 90 -c 2 -a 0 -i 8 -k MAC
h -t 0.523301871 -s 18 -d -1 -p message -e 90 -c 2 -a 0 -i 8 -k MAC
r -t 0.524022411 -s 15 -d -1 -p message -e 32 -c 2 -a 0 -i 8 -k MAC
r -t 0.524022415 -s 21 -d -1 -p message -e 32 -c 2 -a 0 -i 8 -k MAC
r -t 0.524022513 -s 16 -d -1 -p message -e 32 -c 2 -a 0 -i 8 -k MAC
r -t 0.524022555 -s 17 -d -1 -p message -e 32 -c 2 -a 0 -i 8 -k MAC
+ -t 0.526913184 -s 22 -d -1 -p message -e 90 -c 2 -a 0 -i 9 -k MAC 
- -t 0.526913184 -s 22 -d -1 -p message -e 90 -c 2 -a 0 -i 9 -k MAC
h -t 0.526913184 -s 22 -d -1 -p message -e 90 -c 2 -a 0 -i 9 -k MAC
r -t 0.527633578 -s 13 -d -1 -p message -e 32 -c 2 -a 0 -i 9 -k MAC
r -t 0.527633691 -s 23 -d -1 -p message -e 32 -c 2 -a 0 -i 9 -k MAC
r -t 0.527633977 -s 11 -d -1 -p message -e 32 -c 2 -a 0 -i 9 -k MAC
r -t 0.527633986 -s 12 -d -1 -p message -e 32 -c 2 -a 0 -i 9 -k MAC
+ -t 0.663267317 -s 26 -d -1 -p message -e 90 -c 2 -a 0 -i 10 -k MAC 
- -t 0.663267317 -s 26 -d -1 -p message -e 90 -c 2 -a 0 -i 10 -k MAC
h -t 0.663267317 -s 26 -d -1 -p message -e 90 -c 2 -a 0 -i 10 -k MAC
r -t 0.663987859 -s 28 -d -1 -p message -e 32 -c 2 -a 0 -i 10 -k MAC
r -t 0.663987886 -s 7 -d -1 -p message -e 32 -c 2 -a 0 -i 10 -k MAC
r -t 0.663988029 -s 6 -d -1 -p message -e 32 -c 2 -a 0 -i 10 -k MAC
r -t 0.663988106 -s 27 -d -1 -p message -e 32 -c 2 -a 0 -i 10 -k MAC
+ -t 0.677814083 -s 15 -d -1 -p message -e 90 -c 2 -a 0 -i 11 -k MAC 
- -t 0.677814083 -s 15 -d -1 -p message -e 90 -c 2 -a 0 -i 11 -k MAC
h -t 0.677814083 -s 15 -d -1 -p message -e 90 -c 2 -a 0 -i 11 -k MAC
r -t 0.678534591 -s 16 -d -1 -p message -e 32 -c 2 -a 0 -i 11 -k MAC
r -t 0.678534623 -s 18 -d -1 -p message -e 32 -c 2 -a 0 -i 11 -k MAC
r -t 0.678534647 -s 4 -d -1 -p message -e 32 -c 2 -a 0 -i 11 -k MAC
r -t 0.678534674 -s 17 -d -1 -p message -e 32 -c 2 -a 0 -i 11 -k MAC
r -t 0.678534744 -s 1 -d -1 -p message -e 32 -c 2 -a 0 -i 11 -k MAC
+ -t 0.811086208 -s 6 -d -1 -p message -e 90 -c 2 -a 0 -i 12 -k MAC 
- -t 0.811086208 -s 6 -d -1 -p message -e 90 -c 2 -a 0 -i 12 -k MAC
h -t 0.811086208 -s 6 -d -1 -p message -e 90 -c 2 -a 0 -i 12 -k MAC
r -t 0.811806656 -s 3 -d -1 -p message -e 32 -c 2 -a 0 -i 12 -k MAC
r -t 0.811806765 -s 7 -d -1 -p message -e 32 -c 2 -a 0 -i 12 -k MAC
r -t 0.811806887 -s 5 -d -1 -p message -e 32 -c 2 -a 0 -i 12 -k MAC
r -t 0.811806905 -s 24 -d -1 -p message -e 32 -c 2 -a 0 -i 12 -k MAC
r -t 0.811806920 -s 26 -d -1 -p message -e 32 -c 2 -a 0 -i 12 -k MAC
r -t 0.811806952 -s 10 -d -1 -p message -e 32 -c 2 -a 0 -i 12 -k MAC
+ -t 0.815505376 -s 4 -d -1 -p message -e 90 -c 2 -a 0 -i 13 -k MAC 
- -t 0.815505376 -s 4 -d -1 -p message -e 90 -c 2 -a 0 -i 13 -k MAC
h -t 0.815505376 -s 4 -d -1 -p message -e 90 -c 2 -a 0 -i 13 -k MAC
r -t 0.816225797 -s 5 -d -1 -p message -e 32 -c 2 -a 0 -i 13 -k MAC
r -t 0.816225940 -s 15 -d -1 -p message -e 32 -c 2 -a 0 -i 13 -k MAC
r -t 0.816225994 -s 14 -d -1 -p message -e 32 -c 2 -a 0 -i 13 -k MAC
r -t 0.816226013 -s 3 -d -1 -p message -e 32 -c 2 -a 0 -i 13 -k MAC
r -t 0.816226028 -s 16 -d -1 -p message -e 32 -c 2 -a 0 -i 13 -k MAC
r -t 0.816226129 -s 11 -d -1 -p message -e 32 -c 2 -a 0 -i 13 -k MAC
r -t 0.816226145 -s 1 -d -1 -p message -e 32 -c 2 -a 0 -i 13 -k MAC
+ -t 0.855773605 -s 24 -d -1 -p message -e 90 -c 2 -a 0 -i 14 -k MAC 
- -t 0.855773605 -s 24 -d -1 -p message -e 90 -c 2 -a 0 -i 14 -k MAC
h -t 0.855773605 -s 24 -d -1 -p message -e 90 -c 2 -a 0 -i 14 -k MAC
r -t 0.856494061 -s 29 -d -1 -p message -e 32 -c 2 -a 0 -i 14 -k MAC
r -t 0.856494157 -s 28 -d -1 -p message -e 32 -c 2 -a 0 -i 14 -k MAC
r -t 0.856494247 -s 10 -d -1 -p message -e 32 -c 2 -a 0 -i 14 -k MAC
r -t 0.856494303 -s 6 -d -1 -p message -e 32 -c 2 -a 0 -i 14 -k MAC
r -t 0.856494306 -s 25 -d -1 -p message -e 32 -c 2 -a 0 -i 14 -k MAC
d -t 1.000000000 -s 3 -d 4 -p tcp -e 60 -c 2 -a 0 -i 24 -k IFQ
d -t 1.000000000 -s 3 -d 4 -p cbr -e 1020 -c 2 -a 0 -i 25 -k IFQ
d -t 1.000000000 -s 4 -d 5 -p tcp -e 60 -c 2 -a 0 -i 27 -k IFQ
d -t 1.000000000 -s 4 -d 5 -p cbr -e 1020 -c 2 -a 0 -i 28 -k IFQ
d -t 1.000000000 -s 5 -d 6 -p tcp -e 60 -c 2 -a 0 -i 30 -k IFQ
d -t 1.000000000 -s 5 -d 6 -p cbr -e 1020 -c 2 -a 0 -i 31 -k IFQ
d -t 1.000000000 -s 6 -d 7 -p tcp -e 60 -c 2 -a 0 -i 33 -k IFQ
d -t 1.000000000 -s 6 -d 7 -p cbr -e 1020 -c 2 -a 0 -i 36 -k IFQ
d -t 1.000000000 -s 10 -d 11 -p tcp -e 60 -c 2 -a 0 -i 44 -k IFQ
d -t 1.000000000 -s 10 -d 11 -p cbr -e 1020 -c 2 -a 0 -i 45 -k IFQ
d -t 1.000000000 -s 11 -d 12 -p tcp -e 60 -c 2 -a 0 -i 47 -k IFQ
d -t 1.000000000 -s 12 -d 13 -p tcp -e 60 -c 2 -a 0 -i 48 -k IFQ
d -t 1.000000000 -s 11 -d 12 -p cbr -e 1020 -c 2 -a 0 -i 50 -k IFQ
d -t 1.000000000 -s 12 -d 13 -p cbr -e 1020 -c 2 -a 0 -i 51 -k IFQ
d -t 1.000000000 -s 15 -d 16 -p tcp -e 60 -c 2 -a 0 -i 57 -k IFQ
d -t 1.000000000 -s 15 -d 16 -p cbr -e 1020 -c 2 -a 0 -i 60 -k IFQ
d -t 1.000000000 -s 21 -d 18 -p cbr -e 1020 -c 2 -a 0 -i 69 -k IFQ
d -t 1.000000000 -s 17 -d 18 -p tcp -e 60 -c 2 -a 0 -i 65 -k IFQ
d -t 1.000000000 -s 17 -d 18 -p cbr -e 1020 -c 2 -a 0 -i 77 -k IFQ
d -t 1.000000000 -s 24 -d 25 -p tcp -e 60 -c 2 -a 0 -i 82 -k IFQ
d -t 1.000000000 -s 20 -d -1 -p tcp -e 60 -c 2 -a 0 -i 68 -k RTR
d -t 1.000000000 -s 24 -d 25 -p cbr -e 1020 -c 2 -a 0 -i 88 -k IFQ
d -t 1.000000000 -s 26 -d 27 -p tcp -e 60 -c 2 -a 0 -i 95 -k IFQ
d -t 1.000000000 -s 26 -d 27 -p cbr -e 1020 -c 2 -a 0 -i 101 -k IFQ
+ -t 1.000055000 -s 21 -d -1 -p ARP -e 86 -c 2 -a 0 -i 0 -k MAC 
- -t 1.000055000 -s 21 -d -1 -p ARP -e 86 -c 2 -a 0 -i 0 -k MAC
h -t 1.000055000 -s 21 -d -1 -p ARP -e 86 -c 2 -a 0 -i 0 -k MAC
+ -t 1.000055000 -s 26 -d -1 -p ARP -e 86 -c 2 -a 0 -i 0 -k MAC 
- -t 1.000055000 -s 26 -d -1 -p ARP -e 86 -c 2 -a 0 -i 0 -k MAC
h -t 1.000055000 -s 26 -d -1 -p ARP -e 86 -c 2 -a 0 -i 0 -k MAC
r -t 1.000743542 -s 28 -d -1 -p ARP -e 28 -c 2 -a 0 -i 0 -k MAC
r -t 1.000743544 -s 18 -d -1 -p ARP -e 28 -c 2 -a 0 -i 0 -k MAC
r -t 1.000743552 -s 20 -d -1 -p ARP -e 28 -c 2 -a 0 -i 0 -k MAC
r -t 1.000743569 -s 7 -d -1 -p ARP -e 28 -c 2 -a 0 -i 0 -k MAC
r -t 1.000743581 -s 16 -d -1 -p ARP -e 28 -c 2 -a 0 -i 0 -k MAC
r -t 1.000743712 -s 6 -d -1 -p ARP -e 28 -c 2 -a 0 -i 0 -k MAC
r -t 1.000743789 -s 27 -d -1 -p ARP -e 28 -c 2 -a 0 -i 0 -k MAC
+ -t 1.001018544 -s 18 -d -1 -p RTS -e 44 -c 2 -a 0 -i 0 -k MAC 
- -t 1.001018544 -s 18 -d -1 -p RTS -e 44 -c 2 -a 0 -i 0 -k MAC
h -t 1.001018544 -s 18 -d -1 -p RTS -e 44 -c 2 -a 0 -i 0 -k MAC
+ -t 1.001113712 -s 6 -d -1 -p ARP -e 86 -c 2 -a 0 -i 0 -k MAC 
- -t 1.001113712 -s 6 -d -1 -p ARP -e 86 -c 2 -a 0 -i 0 -k MAC
h -t 1.001113712 -s 6 -d -1 -p ARP -e 86 -c 2 -a 0 -i 0 -k MAC
r -t 1.001371088 -s 21 -d -1 -p RTS -e 44 -c 2 -a 0 -i 0 -k MAC
+ -t 1.001381088 -s 21 -d -1 -p CTS -e 38 -c 2 -a 0 -i 0 -k MAC 
- -t 1.001381088 -s 21 -d -1 -p CTS -e 38 -c 2 -a 0 -i 0 -k MAC
h -t 1.001381088 -s 21 -d -1 -p CTS -e 38 -c 2 -a 0 -i 0 -k MAC
r -t 1.001685632 -s 18 -d -1 -p CTS -e 38 -c 2 -a 0 -i 0 -k MAC
+ -t 1.001695632 -s 18 -d -1 -p ARP -e 86 -c 2 -a 0 -i 0 -k MAC 
- -t 1.001695632 -s 18 -d -1 -p ARP -e 86 -c 2 -a 0 -i 0 -k MAC
h -t 1.001695632 -s 18 -d -1 -p ARP -e 86 -c 2 -a 0 -i 0 -k MAC
d -t 1.001802161 -s 3 -d -1 -p ARP -e 86 -c 2 -a 0 -i 0 -k MAC
r -t 1.001802270 -s 7 -d -1 -p ARP -e 28 -c 2 -a 0 -i 0 -k MAC
d -t 1.001802392 -s 5 -d -1 -p ARP -e 86 -c 2 -a 0 -i 0 -k MAC
r -t 1.001802410 -s 24 -d -1 -p ARP -e 28 -c 2 -a 0 -i 0 -k MAC
r -t 1.001802425 -s 26 -d -1 -p ARP -e 28 -c 2 -a 0 -i 0 -k MAC
r -t 1.001802457 -s 10 -d -1 -p ARP -e 28 -c 2 -a 0 -i 0 -k MAC
+ -t 1.001952410 -s 24 -d -1 -p ARP -e 86 -c 2 -a 0 -i 0 -k MAC 
- -t 1.001952410 -s 24 -d -1 -p ARP -e 86 -c 2 -a 0 -i 0 -k MAC
h -t 1.001952410 -s 24 -d -1 -p ARP -e 86 -c 2 -a 0 -i 0 -k MAC
r -t 1.002384176 -s 21 -d -1 -p ARP -e 28 -c 2 -a 0 -i 0 -k MAC
+ -t 1.002394176 -s 21 -d -1 -p ACK -e 38 -c 2 -a 0 -i 0 -k MAC 
- -t 1.002394176 -s 21 -d -1 -p ACK -e 38 -c 2 -a 0 -i 0 -k MAC
h -t 1.002394176 -s 21 -d -1 -p ACK -e 38 -c 2 -a 0 -i 0 -k MAC
r -t 1.002640867 -s 29 -d -1 -p ARP -e 28 -c 2 -a 0 -i 0 -k MAC
r -t 1.002640962 -s 28 -d -1 -p ARP -e 28 -c 2 -a 0 -i 0 -k MAC
r -t 1.002641052 -s 10 -d -1 -p ARP -e 28 -c 2 -a 0 -i 0 -k MAC
r -t 1.002641108 -s 6 -d -1 -p ARP -e 28 -c 2 -a 0 -i 0 -k MAC
r -t 1.002641111 -s 25 -d -1 -p ARP -e 28 -c 2 -a 0 -i 0 -k MAC
r -t 1.002698720 -s 18 -d -1 -p ACK -e 38 -c 2 -a 0 -i 0 -k MAC
+ -t 1.002731108 -s 6 -d -1 -p ARP -e 86 -c 2 -a 0 -i 0 -k MAC 
- -t 1.002731108 -s 6 -d -1 -p ARP -e 86 -c 2 -a 0 -i 0 -k MAC
h -t 1.002731108 -s 6 -d -1 -p ARP -e 86 -c 2 -a 0 -i 0 -k MAC
+ -t 1.003108176 -s 21 -d -1 -p ARP -e 86 -c 2 -a 0 -i 0 -k MAC 
- -t 1.003108176 -s 21 -d -1 -p ARP -e 86 -c 2 -a 0 -i 0 -k MAC
h -t 1.003108176 -s 21 -d -1 -p ARP -e 86 -c 2 -a 0 -i 0 -k MAC
r -t 1.003419556 -s 3 -d -1 -p ARP -e 28 -c 2 -a 0 -i 0 -k MAC
r -t 1.003419666 -s 7 -d -1 -p ARP -e 28 -c 2 -a 0 -i 0 -k MAC
r -t 1.003419788 -s 5 -d -1 -p ARP -e 28 -c 2 -a 0 -i 0 -k MAC
r -t 1.003419806 -s 24 -d -1 -p ARP -e 28 -c 2 -a 0 -i 0 -k MAC
r -t 1.003419821 -s 26 -d -1 -p ARP -e 28 -c 2 -a 0 -i 0 -k MAC
r -t 1.003419853 -s 10 -d -1 -p ARP -e 28 -c 2 -a 0 -i 0 -k MAC
+ -t 1.003509853 -s 10 -d -1 -p ARP -e 86 -c 2 -a 0 -i 0 -k MAC 
- -t 1.003509853 -s 10 -d -1 -p ARP -e 86 -c 2 -a 0 -i 0 -k MAC
h -t 1.003509853 -s 10 -d -1 -p ARP -e 86 -c 2 -a 0 -i 0 -k MAC
r -t 1.003796720 -s 18 -d -1 -p ARP -e 28 -c 2 -a 0 -i 0 -k MAC
r -t 1.003796729 -s 20 -d -1 -p ARP -e 28 -c 2 -a 0 -i 0 -k MAC
d -t 1.003796757 -s 16 -d -1 -p ARP -e 86 -c 2 -a 0 -i 0 -k MAC
+ -t 1.003846176 -s 21 -d -1 -p RTS -e 44 -c 2 -a 0 -i 0 -k MAC 
- -t 1.003846176 -s 21 -d -1 -p RTS -e 44 -c 2 -a 0 -i 0 -k MAC
h -t 1.003846176 -s 21 -d -1 -p RTS -e 44 -c 2 -a 0 -i 0 -k MAC
+ -t 1.004054388 -s 27 -d -1 -p RTS -e 44 -c 2 -a 0 -i 0 -k MAC 
- -t 1.004054388 -s 27 -d -1 -p RTS -e 44 -c 2 -a 0 -i 0 -k MAC
h -t 1.004054388 -s 27 -d -1 -p RTS -e 44 -c 2 -a 0 -i 0 -k MAC
d -t 1.004055667 -s 6 -d -1 -p ARP -e 86 -c 2 -a 0 -i 0 -k MAC
r -t 1.004198367 -s 5 -d -1 -p ARP -e 28 -c 2 -a 0 -i 0 -k MAC
d -t 1.004198438 -s 11 -d -1 -p ARP -e 86 -c 2 -a 0 -i 0 -k MAC
r -t 1.004198494 -s 24 -d -1 -p ARP -e 28 -c 2 -a 0 -i 0 -k MAC
d -t 1.004198566 -s 13 -d -1 -p ARP -e 86 -c 2 -a 0 -i 0 -k MAC
r -t 1.004198613 -s 25 -d -1 -p ARP -e 28 -c 2 -a 0 -i 0 -k MAC
r -t 1.004198625 -s 23 -d -1 -p ARP -e 28 -c 2 -a 0 -i 0 -k MAC
r -t 1.004198720 -s 18 -d -1 -p RTS -e 44 -c 2 -a 0 -i 0 -k MAC
+ -t 1.004208720 -s 18 -d -1 -p CTS -e 38 -c 2 -a 0 -i 0 -k MAC 
- -t 1.004208720 -s 18 -d -1 -p CTS -e 38 -c 2 -a 0 -i 0 -k MAC
h -t 1.004208720 -s 18 -d -1 -p CTS -e 38 -c 2 -a 0 -i 0 -k MAC
d -t 1.004407177 -s 26 -d -1 -p RTS -e 44 -c 2 -a 0 -i 0 -k MAC
r -t 1.004513264 -s 21 -d -1 -p CTS -e 38 -c 2 -a 0 -i 0 -k MAC
+ -t 1.004523264 -s 21 -d 18 -p ping -e 142 -c 2 -a 0 -i 73 -k MAC 
- -t 1.004523264 -s 21 -d 18 -p ping -e 142 -c 2 -a 0 -i 73 -k MAC
h -t 1.004523264 -s 21 -d 18 -p ping -e 142 -c 2 -a 0 -i 73 -k MAC
+ -t 1.004747853 -s 10 -d -1 -p ARP -e 86 -c 2 -a 0 -i 0 -k MAC 
- -t 1.004747853 -s 10 -d -1 -p ARP -e 86 -c 2 -a 0 -i 0 -k MAC
h -t 1.004747853 -s 10 -d -1 -p ARP -e 86 -c 2 -a 0 -i 0 -k MAC
d -t 1.004748367 -s 5 -d -1 -p ARP -e 86 -c 2 -a 0 -i 0 -k MAC
d -t 1.004748438 -s 11 -d -1 -p ARP -e 86 -c 2 -a 0 -i 0 -k MAC
d -t 1.004748566 -s 13 -d -1 -p ARP -e 86 -c 2 -a 0 -i 0 -k MAC
r -t 1.005436494 -s 24 -d -1 -p ARP -e 28 -c 2 -a 0 -i 0 -k MAC
r -t 1.005436597 -s 6 -d -1 -p ARP -e 28 -c 2 -a 0 -i 0 -k MAC
r -t 1.005436613 -s 25 -d -1 -p ARP -e 28 -c 2 -a 0 -i 0 -k MAC
r -t 1.005436625 -s 23 -d -1 -p ARP -e 28 -c 2 -a 0 -i 0 -k MAC
+ -t 1.005485853 -s 10 -d -1 -p ARP -e 86 -c 2 -a 0 -i 0 -k MAC 
- -t 1.005485853 -s 10 -d -1 -p ARP -e 86 -c 2 -a 0 -i 0 -k MAC
h -t 1.005485853 -s 10 -d -1 -p ARP -e 86 -c 2 -a 0 -i 0 -k MAC
r -t 1.005659808 -s 18 -d 18 -p ping -e 84 -c 2 -a 0 -i 73 -k MAC
+ -t 1.005669808 -s 18 -d -1 -p ACK -e 38 -c 2 -a 0 -i 0 -k MAC 
- -t 1.005669808 -s 18 -d -1 -p ACK -e 38 -c 2 -a 0 -i 0 -k MAC
h -t 1.005669808 -s 18 -d -1 -p ACK -e 38 -c 2 -a 0 -i 0 -k MAC
+ -t 1.005754388 -s 27 -d -1 -p RTS -e 44 -c 2 -a 0 -i 0 -k MAC 
- -t 1.005754388 -s 27 -d -1 -p RTS -e 44 -c 2 -a 0 -i 0 -k MAC
h -t 1.005754388 -s 27 -d -1 -p RTS -e 44 -c 2 -a 0 -i 0 -k MAC
d -t 1.005755177 -s 26 -d -1 -p RTS -e 44 -c 2 -a 0 -i 0 -k MAC
r -t 1.005974352 -s 21 -d -1 -p ACK -e 38 -c 2 -a 0 -i 0 -k MAC
d -t 1.006174367 -s 5 -d -1 -p ARP -e 86 -c 2 -a 0 -i 0 -k MAC
d -t 1.006174438 -s 11 -d -1 -p ARP -e 86 -c 2 -a 0 -i 0 -k MAC
r -t 1.006174494 -s 24 -d -1 -p ARP -e 28 -c 2 -a 0 -i 0 -k MAC
d -t 1.006174566 -s 13 -d -1 -p ARP -e 86 -c 2 -a 0 -i 0 -k MAC
d -t 1.006174597 -s 6 -d -1 -p ARP -e 86 -c 2 -a 0 -i 0 -k MAC
r -t 1.006174613 -s 25 -d -1 -p ARP -e 28 -c 2 -a 0 -i 0 -k MAC
r -t 1.006174625 -s 23 -d -1 -p ARP -e 28 -c 2 -a 0 -i 0 -k MAC
+ -t 1.006264613 -s 25 -d -1 -p ARP -e 86 -c 2 -a 0 -i 0 -k MAC 
- -t 1.006264613 -s 25 -d -1 -p ARP -e 86 -c 2 -a 0 -i 0 -k MAC
h -t 1.006264613 -s 25 -d -1 -p ARP -e 86 -c 2 -a 0 -i 0 -k MAC
+ -t 1.006314481 -s 17 -d -1 -p ARP -e 86 -c 2 -a 0 -i 0 -k MAC 
- -t 1.006314481 -s 17 -d -1 -p ARP -e 86 -c 2 -a 0 -i 0 -k MAC
h -t 1.006314481 -s 17 -d -1 -p ARP -e 86 -c 2 -a 0 -i 0 -k MAC
+ -t 1.006514388 -s 27 -d -1 -p RTS -e 44 -c 2 -a 0 -i 0 -k MAC 
- -t 1.006514388 -s 27 -d -1 -p RTS -e 44 -c 2 -a 0 -i 0 -k MAC
h -t 1.006514388 -s 27 -d -1 -p RTS -e 44 -c 2 -a 0 -i 0 -k MAC
d -t 1.006515177 -s 26 -d -1 -p RTS -e 44 -c 2 -a 0 -i 0 -k MAC
r -t 1.006953169 -s 30 -d -1 -p ARP -e 28 -c 2 -a 0 -i 0 -k MAC
r -t 1.006953190 -s 23 -d -1 -p ARP -e 28 -c 2 -a 0 -i 0 -k MAC
r -t 1.006953246 -s 29 -d -1 -p ARP -e 28 -c 2 -a 0 -i 0 -k MAC
r -t 1.006953314 -s 24 -d -1 -p ARP -e 28 -c 2 -a 0 -i 0 -k MAC
r -t 1.006953373 -s 10 -d -1 -p ARP -e 28 -c 2 -a 0 -i 0 -k MAC
r -t 1.007003072 -s 15 -d -1 -p ARP -e 28 -c 2 -a 0 -i 0 -k MAC
r -t 1.007003092 -s 1 -d -1 -p ARP -e 28 -c 2 -a 0 -i 0 -k MAC
r -t 1.007003165 -s 18 -d -1 -p ARP -e 28 -c 2 -a 0 -i 0 -k MAC
d -t 1.007003311 -s 0 -d -1 -p ARP -e 86 -c 2 -a 0 -i 0 -k MAC
+ -t 1.007153165 -s 18 -d -1 -p RTS -e 44 -c 2 -a 0 -i 0 -k MAC 
- -t 1.007153165 -s 18 -d -1 -p RTS -e 44 -c 2 -a 0 -i 0 -k MAC
h -t 1.007153165 -s 18 -d -1 -p RTS -e 44 -c 2 -a 0 -i 0 -k MAC
+ -t 1.007423169 -s 30 -d -1 -p ARP -e 86 -c 2 -a 0 -i 0 -k MAC 
- -t 1.007423169 -s 30 -d -1 -p ARP -e 86 -c 2 -a 0 -i 0 -k MAC
h -t 1.007423169 -s 30 -d -1 -p ARP -e 86 -c 2 -a 0 -i 0 -k MAC
r -t 1.007505709 -s 21 -d -1 -p RTS -e 44 -c 2 -a 0 -i 0 -k MAC
+ -t 1.007515709 -s 21 -d -1 -p CTS -e 38 -c 2 -a 0 -i 0 -k MAC 
- -t 1.007515709 -s 21 -d -1 -p CTS -e 38 -c 2 -a 0 -i 0 -k MAC
h -t 1.007515709 -s 21 -d -1 -p CTS -e 38 -c 2 -a 0 -i 0 -k MAC
+ -t 1.007538088 -s 7 -d -1 -p RTS -e 44 -c 2 -a 0 -i 0 -k MAC 
- -t 1.007538088 -s 7 -d -1 -p RTS -e 44 -c 2 -a 0 -i 0 -k MAC
h -t 1.007538088 -s 7 -d -1 -p RTS -e 44 -c 2 -a 0 -i 0 -k MAC
d -t 1.007538645 -s 6 -d -1 -p RTS -e 44 -c 2 -a 0 -i 0 -k MAC
r -t 1.007820253 -s 18 -d -1 -p CTS -e 38 -c 2 -a 0 -i 0 -k MAC
+ -t 1.007830253 -s 18 -d -1 -p ARP -e 86 -c 2 -a 0 -i 0 -k MAC 
- -t 1.007830253 -s 18 -d -1 -p ARP -e 86 -c 2 -a 0 -i 0 -k MAC
h -t 1.007830253 -s 18 -d -1 -p ARP -e 86 -c 2 -a 0 -i 0 -k MAC
r -t 1.008111726 -s 25 -d -1 -p ARP -e 28 -c 2 -a 0 -i 0 -k MAC
r -t 1.008111872 -s 29 -d -1 -p ARP -e 28 -c 2 -a 0 -i 0 -k MAC
+ -t 1.008385885 -s 25 -d -1 -p RTS -e 44 -c 2 -a 0 -i 0 -k MAC 
- -t 1.008385885 -s 25 -d -1 -p RTS -e 44 -c 2 -a 0 -i 0 -k MAC
h -t 1.008385885 -s 25 -d -1 -p RTS -e 44 -c 2 -a 0 -i 0 -k MAC
r -t 1.008518797 -s 21 -d -1 -p ARP -e 28 -c 2 -a 0 -i 0 -k MAC
+ -t 1.008528797 -s 21 -d -1 -p ACK -e 38 -c 2 -a 0 -i 0 -k MAC 
- -t 1.008528797 -s 21 -d -1 -p ACK -e 38 -c 2 -a 0 -i 0 -k MAC
h -t 1.008528797 -s 21 -d -1 -p ACK -e 38 -c 2 -a 0 -i 0 -k MAC
r -t 1.008738585 -s 24 -d -1 -p RTS -e 44 -c 2 -a 0 -i 0 -k MAC
+ -t 1.008748585 -s 24 -d -1 -p CTS -e 38 -c 2 -a 0 -i 0 -k MAC 
- -t 1.008748585 -s 24 -d -1 -p CTS -e 38 -c 2 -a 0 -i 0 -k MAC
h -t 1.008748585 -s 24 -d -1 -p CTS -e 38 -c 2 -a 0 -i 0 -k MAC
r -t 1.008833341 -s 18 -d -1 -p ACK -e 38 -c 2 -a 0 -i 0 -k MAC
+ -t 1.008923341 -s 18 -d -1 -p RTS -e 44 -c 2 -a 0 -i 0 -k MAC 
- -t 1.008923341 -s 18 -d -1 -p RTS -e 44 -c 2 -a 0 -i 0 -k MAC
h -t 1.008923341 -s 18 -d -1 -p RTS -e 44 -c 2 -a 0 -i 0 -k MAC
r -t 1.009053286 -s 25 -d -1 -p CTS -e 38 -c 2 -a 0 -i 0 -k MAC
+ -t 1.009063286 -s 25 -d 24 -p ping -e 142 -c 2 -a 0 -i 105 -k MAC 
- -t 1.009063286 -s 25 -d 24 -p ping -e 142 -c 2 -a 0 -i 105 -k MAC
h -t 1.009063286 -s 25 -d 24 -p ping -e 142 -c 2 -a 0 -i 105 -k MAC
r -t 1.009276025 -s 17 -d -1 -p RTS -e 44 -c 2 -a 0 -i 0 -k MAC
+ -t 1.009286025 -s 17 -d -1 -p CTS -e 38 -c 2 -a 0 -i 0 -k MAC 
- -t 1.009286025 -s 17 -d -1 -p CTS -e 38 -c 2 -a 0 -i 0 -k MAC
h -t 1.009286025 -s 17 -d -1 -p CTS -e 38 -c 2 -a 0 -i 0 -k MAC
r -t 1.009590710 -s 18 -d -1 -p CTS -e 38 -c 2 -a 0 -i 0 -k MAC
+ -t 1.009600710 -s 18 -d -1 -p ARP -e 86 -c 2 -a 0 -i 0 -k MAC 
- -t 1.009600710 -s 18 -d -1 -p ARP -e 86 -c 2 -a 0 -i 0 -k MAC
h -t 1.009600710 -s 18 -d -1 -p ARP -e 86 -c 2 -a 0 -i 0 -k MAC
r -t 1.010199987 -s 24 -d 24 -p ping -e 84 -c 2 -a 0 -i 105 -k MAC
+ -t 1.010209987 -s 24 -d -1 -p ACK -e 38 -c 2 -a 0 -i 0 -k MAC 
- -t 1.010209987 -s 24 -d -1 -p ACK -e 38 -c 2 -a 0 -i 0 -k MAC
h -t 1.010209987 -s 24 -d -1 -p ACK -e 38 -c 2 -a 0 -i 0 -k MAC
r -t 1.010289394 -s 17 -d -1 -p ARP -e 28 -c 2 -a 0 -i 0 -k MAC
+ -t 1.010299394 -s 17 -d -1 -p ACK -e 38 -c 2 -a 0 -i 0 -k MAC 
- -t 1.010299394 -s 17 -d -1 -p ACK -e 38 -c 2 -a 0 -i 0 -k MAC
h -t 1.010299394 -s 17 -d -1 -p ACK -e 38 -c 2 -a 0 -i 0 -k MAC
r -t 1.010514688 -s 25 -d -1 -p ACK -e 38 -c 2 -a 0 -i 0 -k MAC
r -t 1.010604078 -s 18 -d -1 -p ACK -e 38 -c 2 -a 0 -i 0 -k MAC
+ -t 1.010693984 -s 15 -d -1 -p ARP -e 86 -c 2 -a 0 -i 0 -k MAC 
- -t 1.010693984 -s 15 -d -1 -p ARP -e 86 -c 2 -a 0 -i 0 -k MAC
h -t 1.010693984 -s 15 -d -1 -p ARP -e 86 -c 2 -a 0 -i 0 -k MAC
+ -t 1.010863987 -s 24 -d -1 -p ARP -e 86 -c 2 -a 0 -i 0 -k MAC 
- -t 1.010863987 -s 24 -d -1 -p ARP -e 86 -c 2 -a 0 -i 0 -k MAC
h -t 1.010863987 -s 24 -d -1 -p ARP -e 86 -c 2 -a 0 -i 0 -k MAC
r -t 1.011382492 -s 16 -d -1 -p ARP -e 28 -c 2 -a 0 -i 0 -k MAC
r -t 1.011382524 -s 18 -d -1 -p ARP -e 28 -c 2 -a 0 -i 0 -k MAC
r -t 1.011382548 -s 4 -d -1 -p ARP -e 28 -c 2 -a 0 -i 0 -k MAC
r -t 1.011382575 -s 17 -d -1 -p ARP -e 28 -c 2 -a 0 -i 0 -k MAC
r -t 1.011382645 -s 1 -d -1 -p ARP -e 28 -c 2 -a 0 -i 0 -k MAC
+ -t 1.011431984 -s 15 -d -1 -p ARP -e 86 -c 2 -a 0 -i 0 -k MAC 
- -t 1.011431984 -s 15 -d -1 -p ARP -e 86 -c 2 -a 0 -i 0 -k MAC
h -t 1.011431984 -s 15 -d -1 -p ARP -e 86 -c 2 -a 0 -i 0 -k MAC
r -t 1.011552443 -s 29 -d -1 -p ARP -e 28 -c 2 -a 0 -i 0 -k MAC
r -t 1.011552538 -s 28 -d -1 -p ARP -e 28 -c 2 -a 0 -i 0 -k MAC
d -t 1.011552629 -s 10 -d -1 -p ARP -e 86 -c 2 -a 0 -i 0 -k MAC
d -t 1.011552685 -s 6 -d -1 -p ARP -e 86 -c 2 -a 0 -i 0 -k MAC
r -t 1.011552688 -s 25 -d -1 -p ARP -e 28 -c 2 -a 0 -i 0 -k MAC
+ -t 1.011802688 -s 25 -d -1 -p RTS -e 44 -c 2 -a 0 -i 0 -k MAC 
- -t 1.011802688 -s 25 -d -1 -p RTS -e 44 -c 2 -a 0 -i 0 -k MAC
h -t 1.011802688 -s 25 -d -1 -p RTS -e 44 -c 2 -a 0 -i 0 -k MAC
r -t 1.012120492 -s 16 -d -1 -p ARP -e 28 -c 2 -a 0 -i 0 -k MAC
r -t 1.012120524 -s 18 -d -1 -p ARP -e 28 -c 2 -a 0 -i 0 -k MAC
r -t 1.012120548 -s 4 -d -1 -p ARP -e 28 -c 2 -a 0 -i 0 -k MAC
r -t 1.012120575 -s 17 -d -1 -p ARP -e 28 -c 2 -a 0 -i 0 -k MAC
r -t 1.012120645 -s 1 -d -1 -p ARP -e 28 -c 2 -a 0 -i 0 -k MAC
r -t 1.012155388 -s 24 -d -1 -p RTS -e 44 -c 2 -a 0 -i 0 -k MAC
+ -t 1.012165388 -s 24 -d -1 -p CTS -e 38 -c 2 -a 0 -i 0 -k MAC 
- -t 1.012165388 -s 24 -d -1 -p CTS -e 38 -c 2 -a 0 -i 0 -k MAC
h -t 1.012165388 -s 24 -d -1 -p CTS -e 38 -c 2 -a 0 -i 0 -k MAC
+ -t 1.012250492 -s 16 -d -1 -p RTS -e 44 -c 2 -a 0 -i 0 -k MAC 
- -t 1.012250492 -s 16 -d -1 -p RTS -e 44 -c 2 -a 0 -i 0 -k MAC
h -t 1.012250492 -s 16 -d -1 -p RTS -e 44 -c 2 -a 0 -i 0 -k MAC
r -t 1.012470089 -s 25 -d -1 -p CTS -e 38 -c 2 -a 0 -i 0 -k MAC
+ -t 1.012480089 -s 25 -d -1 -p ARP -e 86 -c 2 -a 0 -i 0 -k MAC 
- -t 1.012480089 -s 25 -d -1 -p ARP -e 86 -c 2 -a 0 -i 0 -k MAC
h -t 1.012480089 -s 25 -d -1 -p ARP -e 86 -c 2 -a 0 -i 0 -k MAC
r -t 1.012603000 -s 15 -d -1 -p RTS -e 44 -c 2 -a 0 -i 0 -k MAC
+ -t 1.012613000 -s 15 -d -1 -p CTS -e 38 -c 2 -a 0 -i 0 -k MAC 
- -t 1.012613000 -s 15 -d -1 -p CTS -e 38 -c 2 -a 0 -i 0 -k MAC
h -t 1.012613000 -s 15 -d -1 -p CTS -e 38 -c 2 -a 0 -i 0 -k MAC
r -t 1.012917508 -s 16 -d -1 -p CTS -e 38 -c 2 -a 0 -i 0 -k MAC
+ -t 1.012927508 -s 16 -d -1 -p ARP -e 86 -c 2 -a 0 -i 0 -k MAC 
- -t 1.012927508 -s 16 -d -1 -p ARP -e 86 -c 2 -a 0 -i 0 -k MAC
h -t 1.012927508 -s 16 -d -1 -p ARP -e 86 -c 2 -a 0 -i 0 -k MAC
r -t 1.013168790 -s 24 -d -1 -p ARP -e 28 -c 2 -a 0 -i 0 -k MAC
+ -t 1.013178790 -s 24 -d -1 -p ACK -e 38 -c 2 -a 0 -i 0 -k MAC 
- -t 1.013178790 -s 24 -d -1 -p ACK -e 38 -c 2 -a 0 -i 0 -k MAC
h -t 1.013178790 -s 24 -d -1 -p ACK -e 38 -c 2 -a 0 -i 0 -k MAC
r -t 1.013483491 -s 25 -d -1 -p ACK -e 38 -c 2 -a 0 -i 0 -k MAC
r -t 1.013616015 -s 15 -d -1 -p ARP -e 28 -c 2 -a 0 -i 0 -k MAC
+ -t 1.013626015 -s 15 -d -1 -p ACK -e 38 -c 2 -a 0 -i 0 -k MAC 
- -t 1.013626015 -s 15 -d -1 -p ACK -e 38 -c 2 -a 0 -i 0 -k MAC
h -t 1.013626015 -s 15 -d -1 -p ACK -e 38 -c 2 -a 0 -i 0 -k MAC
+ -t 1.013873491 -s 25 -d -1 -p RTS -e 44 -c 2 -a 0 -i 0 -k MAC 
- -t 1.013873491 -s 25 -d -1 -p RTS -e 44 -c 2 -a 0 -i 0 -k MAC
h -t 1.013873491 -s 25 -d -1 -p RTS -e 44 -c 2 -a 0 -i 0 -k MAC
r -t 1.013930523 -s 16 -d -1 -p ACK -e 38 -c 2 -a 0 -i 0 -k MAC
+ -t 1.014200015 -s 15 -d -1 -p ARP -e 86 -c 2 -a 0 -i 0 -k MAC 
- -t 1.014200015 -s 15 -d -1 -p ARP -e 86 -c 2 -a 0 -i 0 -k MAC
h -t 1.014200015 -s 15 -d -1 -p ARP -e 86 -c 2 -a 0 -i 0 -k MAC
r -t 1.014226047 -s 30 -d -1 -p RTS -e 44 -c 2 -a 0 -i 0 -k MAC
+ -t 1.014236047 -s 30 -d -1 -p CTS -e 38 -c 2 -a 0 -i 0 -k MAC 
- -t 1.014236047 -s 30 -d -1 -p CTS -e 38 -c 2 -a 0 -i 0 -k MAC
h -t 1.014236047 -s 30 -d -1 -p CTS -e 38 -c 2 -a 0 -i 0 -k MAC
r -t 1.014540604 -s 25 -d -1 -p CTS -e 38 -c 2 -a 0 -i 0 -k MAC
+ -t 1.014550604 -s 25 -d -1 -p ARP -e 86 -c 2 -a 0 -i 0 -k MAC 
- -t 1.014550604 -s 25 -d -1 -p ARP -e 86 -c 2 -a 0 -i 0 -k MAC
h -t 1.014550604 -s 25 -d -1 -p ARP -e 86 -c 2 -a 0 -i 0 -k MAC
r -t 1.014888523 -s 16 -d -1 -p ARP -e 28 -c 2 -a 0 -i 0 -k MAC
r -t 1.014888555 -s 18 -d -1 -p ARP -e 28 -c 2 -a 0 -i 0 -k MAC
r -t 1.014888579 -s 4 -d -1 -p ARP -e 28 -c 2 -a 0 -i 0 -k MAC
r -t 1.014888606 -s 17 -d -1 -p ARP -e 28 -c 2 -a 0 -i 0 -k MAC
r -t 1.014888676 -s 1 -d -1 -p ARP -e 28 -c 2 -a 0 -i 0 -k MAC
+ -t 1.014938430 -s 27 -d -1 -p RTS -e 44 -c 2 -a 0 -i 0 -k MAC 
- -t 1.014938430 -s 27 -d -1 -p RTS -e 44 -c 2 -a 0 -i 0 -k MAC
h -t 1.014938430 -s 27 -d -1 -p RTS -e 44 -c 2 -a 0 -i 0 -k MAC
+ -t 1.015058523 -s 16 -d -1 -p RTS -e 44 -c 2 -a 0 -i 0 -k MAC 
- -t 1.015058523 -s 16 -d -1 -p RTS -e 44 -c 2 -a 0 -i 0 -k MAC
h -t 1.015058523 -s 16 -d -1 -p RTS -e 44 -c 2 -a 0 -i 0 -k MAC
r -t 1.015239161 -s 30 -d -1 -p ARP -e 28 -c 2 -a 0 -i 0 -k MAC
+ -t 1.015249161 -s 30 -d -1 -p ACK -e 38 -c 2 -a 0 -i 0 -k MAC 
- -t 1.015249161 -s 30 -d -1 -p ACK -e 38 -c 2 -a 0 -i 0 -k MAC
h -t 1.015249161 -s 30 -d -1 -p ACK -e 38 -c 2 -a 0 -i 0 -k MAC
d -t 1.015291220 -s 26 -d -1 -p RTS -e 44 -c 2 -a 0 -i 0 -k MAC
r -t 1.015411031 -s 15 -d -1 -p RTS -e 44 -c 2 -a 0 -i 0 -k MAC
+ -t 1.015421031 -s 15 -d -1 -p CTS -e 38 -c 2 -a 0 -i 0 -k MAC 
- -t 1.015421031 -s 15 -d -1 -p CTS -e 38 -c 2 -a 0 -i 0 -k MAC
h -t 1.015421031 -s 15 -d -1 -p CTS -e 38 -c 2 -a 0 -i 0 -k MAC
r -t 1.015553717 -s 25 -d -1 -p ACK -e 38 -c 2 -a 0 -i 0 -k MAC