s 0.023999017 _13_ MAC  --- 0 message 90 [0 ffffffff d 800] ------- [13:255 -1:255 32 0] 
r 0.024719410 _22_ MAC  --- 0 message 32 [0 ffffffff d 800] ------- [13:255 -1:255 32 0] 
r 0.024719420 _11_ MAC  --- 0 message 32 [0 ffffffff d 800] ------- [13:255 -1:255 32 0] 
r 0.024719567 _23_ MAC  --- 0 message 32 [0 ffffffff d 800] ------- [13:255 -1:255 32 0] 
r 0.024719631 _12_ MAC  --- 0 message 32 [0 ffffffff d 800] ------- [13:255 -1:255 32 0] 
r 0.024719731 _10_ MAC  --- 0 message 32 [0 ffffffff d 800] ------- [13:255 -1:255 32 0] 
s 0.056563514 _25_ MAC  --- 1 message 90 [0 ffffffff 19 800] ------- [25:255 -1:255 32 0] 
r 0.057284071 _30_ MAC  --- 1 message 32 [0 ffffffff 19 800] ------- [25:255 -1:255 32 0] 
r 0.057284091 _23_ MAC  --- 1 message 32 [0 ffffffff 19 800] ------- [25:255 -1:255 32 0] 
r 0.057284147 _29_ MAC  --- 1 message 32 [0 ffffffff 19 800] ------- [25:255 -1:255 32 0] 
r 0.057284215 _24_ MAC  --- 1 message 32 [0 ffffffff 19 800] ------- [25:255 -1:255 32 0] 
r 0.057284274 _10_ MAC  --- 1 message 32 [0 ffffffff 19 800] ------- [25:255 -1:255 32 0] 
s 0.122289241 _12_ MAC  --- 2 message 90 [0 ffffffff c 800] ------- [12:255 -1:255 32 0] 
r 0.123009729 _14_ MAC  --- 2 message 32 [0 ffffffff c 800] ------- [12:255 -1:255 32 0] 
r 0.123009778 _19_ MAC  --- 2 message 32 [0 ffffffff c 800] ------- [12:255 -1:255 32 0] 
r 0.123009817 _11_ MAC  --- 2 message 32 [0 ffffffff c 800] ------- [12:255 -1:255 32 0] 
r 0.123009854 _13_ MAC  --- 2 message 32 [0 ffffffff c 800] ------- [12:255 -1:255 32 0] 
r 0.123010042 _22_ MAC  --- 2 message 32 [0 ffffffff c 800] ------- [12:255 -1:255 32 0] 
s 0.226735945 _5_ MAC  --- 3 message 90 [0 ffffffff 5 800] ------- [5:255 -1:255 32 0] 
r 0.227456366 _4_ MAC  --- 3 message 32 [0 ffffffff 5 800] ------- [5:255 -1:255 32 0] 
r 0.227456459 _10_ MAC  --- 3 message 32 [0 ffffffff 5 800] ------- [5:255 -1:255 32 0] 
r 0.227456471 _11_ MAC  --- 3 message 32 [0 ffffffff 5 800] ------- [5:255 -1:255 32 0] 
r 0.227456579 _3_ MAC  --- 3 message 32 [0 ffffffff 5 800] ------- [5:255 -1:255 32 0] 
r 0.227456625 _6_ MAC  --- 3 message 32 [0 ffffffff 5 800] ------- [5:255 -1:255 32 0] 
r 0.227456669 _14_ MAC  --- 3 message 32 [0 ffffffff 5 800] ------- [5:255 -1:255 32 0] 
s 0.231998049 _11_ MAC  --- 4 message 90 [0 ffffffff b 800] ------- [11:255 -1:255 32 0] 
r 0.232718453 _13_ MAC  --- 4 message 32 [0 ffffffff b 800] ------- [11:255 -1:255 32 0] 
r 0.232718575 _14_ MAC  --- 4 message 32 [0 ffffffff b 800] ------- [11:255 -1:255 32 0] 
r 0.232718575 _5_ MAC  --- 4 message 32 [0 ffffffff b 800] ------- [11:255 -1:255 32 0] 
r 0.232718625 _12_ MAC  --- 4 message 32 [0 ffffffff b 800] ------- [11:255 -1:255 32 0] 
r 0.232718635 _10_ MAC  --- 4 message 32 [0 ffffffff b 800] ------- [11:255 -1:255 32 0] 
r 0.232718802 _4_ MAC  --- 4 message 32 [0 ffffffff b 800] ------- [11:255 -1:255 32 0] 
r 0.232718842 _22_ MAC  --- 4 message 32 [0 ffffffff b 800] ------- [11:255 -1:255 32 0] 
s 0.252406078 _16_ MAC  --- 5 message 90 [0 ffffffff 10 800] ------- [16:255 -1:255 32 0] 
r 0.253126582 _14_ MAC  --- 5 message 32 [0 ffffffff 10 800] ------- [16:255 -1:255 32 0] 
r 0.253126585 _15_ MAC  --- 5 message 32 [0 ffffffff 10 800] ------- [16:255 -1:255 32 0] 
r 0.253126658 _21_ MAC  --- 5 message 32 [0 ffffffff 10 800] ------- [16:255 -1:255 32 0] 
r 0.253126720 _18_ MAC  --- 5 message 32 [0 ffffffff 10 800] ------- [16:255 -1:255 32 0] 
r 0.253126729 _4_ MAC  --- 5 message 32 [0 ffffffff 10 800] ------- [16:255 -1:255 32 0] 
r 0.253126774 _20_ MAC  --- 5 message 32 [0 ffffffff 10 800] ------- [16:255 -1:255 32 0] 
s 0.374343391 _27_ MAC  --- 6 message 90 [0 ffffffff 1b 800] ------- [27:255 -1:255 32 0] 
r 0.375063862 _8_ MAC  --- 6 message 32 [0 ffffffff 1b 800] ------- [27:255 -1:255 32 0] 
r 0.375064161 _7_ MAC  --- 6 message 32 [0 ffffffff 1b 800] ------- [27:255 -1:255 32 0] 
r 0.375064181 _26_ MAC  --- 6 message 32 [0 ffffffff 1b 800] ------- [27:255 -1:255 32 0] 
s 0.378721522 _7_ MAC  --- 7 message 90 [0 ffffffff 7 800] ------- [7:255 -1:255 32 0] 
r 0.379442029 _8_ MAC  --- 7 message 32 [0 ffffffff 7 800] ------- [7:255 -1:255 32 0] 
r 0.379442062 _2_ MAC  --- 7 message 32 [0 ffffffff 7 800] ------- [7:255 -1:255 32 0] 
r 0.379442079 _6_ MAC  --- 7 message 32 [0 ffffffff 7 800] ------- [7:255 -1:255 32 0] 
r 0.379442091 _26_ MAC  --- 7 message 32 [0 ffffffff 7 800] ------- [7:255 -1:255 32 0] 
r 0.379442134 _3_ MAC  --- 7 message 32 [0 ffffffff 7 800] ------- [7:255 -1:255 32 0] 
r 0.379442292 _27_ MAC  --- 7 message 32 [0 ffffffff 7 800] ------- [7:255 -1:255 32 0] 
s 0.523301871 _18_ MAC  --- 8 message 90 [0 ffffffff 12 800] ------- [18:255 -1:255 32 0] 
r 0.524022411 _15_ MAC  --- 8 message 32 [0 ffffffff 12 800] ------- [18:255 -1:255 32 0] 
r 0.524022415 _21_ MAC  --- 8 message 32 [0 ffffffff 12 800] ------- [18:255 -1:255 32 0] 
r 0.524022513 _16_ MAC  --- 8 message 32 [0 ffffffff 12 800] ------- [18:255 -1:255 32 0] 
r 0.524022555 _17_ MAC  --- 8 message 32 [0 ffffffff 12 800] ------- [18:255 -1:255 32 0] 
s 0.526913184 _22_ MAC  --- 9 message 90 [0 ffffffff 16 800] ------- [22:255 -1:255 32 0] 
r 0.527633578 _13_ MAC  --- 9 message 32 [0 ffffffff 16 800] ------- [22:255 -1:255 32 0] 
r 0.527633691 _23_ MAC  --- 9 message 32 [0 ffffffff 16 800] ------- [22:255 -1:255 32 0] 
r 0.527633977 _11_ MAC  --- 9 message 32 [0 ffffffff 16 800] ------- [22:255 -1:255 32 0] 
r 0.527633986 _12_ MAC  --- 9 message 32 [0 ffffffff 16 800] ------- [22:255 -1:255 32 0] 
s 0.663267317 _26_ MAC  --- 10 message 90 [0 ffffffff 1a 800] ------- [26:255 -1:255 32 0] 
r 0.663987859 _28_ MAC  --- 10 message 32 [0 ffffffff 1a 800] ------- [26:255 -1:255 32 0] 
r 0.663987886 _7_ MAC  --- 10 message 32 [0 ffffffff 1a 800] ------- [26:255 -1:255 32 0] 
r 0.663988029 _6_ MAC  --- 10 message 32 [0 ffffffff 1a 800] ------- [26:255 -1:255 32 0] 
r 0.663988106 _27_ MAC  --- 10 message 32 [0 ffffffff 1a 800] ------- [26:255 -1:255 32 0] 
s 0.677814083 _15_ MAC  --- 11 message 90 [0 ffffffff f 800] ------- [15:255 -1:255 32 0] 
r 0.678534591 _16_ MAC  --- 11 message 32 [0 ffffffff f 800] ------- [15:255 -1:255 32 0] 
r 0.678534623 _18_ MAC  --- 11 message 32 [0 ffffffff f 800] ------- [15:255 -1:255 32 0] 
r 0.678534647 _4_ MAC  --- 11 message 32 [0 ffffffff f 800] ------- [15:255 -1:255 32 0] 
r 0.678534674 _17_ MAC  --- 11 message 32 [0 ffffffff f 800] ------- [15:255 -1:255 32 0] 
r 0.678534744 _1_ MAC  --- 11 message 32 [0 ffffffff f 800] ------- [15:255 -1:255 32 0] 
s 0.811086208 _6_ MAC  --- 12 message 90 [0 ffffffff 6 800] ------- [6:255 -1:255 32 0] 
r 0.811806656 _3_ MAC  --- 12 message 32 [0 ffffffff 6 800] ------- [6:255 -1:255 32 0] 
r 0.811806765 _7_ MAC  --- 12 message 32 [0 ffffffff 6 800] ------- [6:255 -1:255 32 0] 
r 0.811806887 _5_ MAC  --- 12 message 32 [0 ffffffff 6 800] ------- [6:255 -1:255 32 0] 
r 0.811806905 _24_ MAC  --- 12 message 32 [0 ffffffff 6 800] ------- [6:255 -1:255 32 0] 
r 0.811806920 _26_ MAC  --- 12 message 32 [0 ffffffff 6 800] ------- [6:255 -1:255 32 0] 
r 0.811806952 _10_ MAC  --- 12 message 32 [0 ffffffff 6 800] ------- [6:255 -1:255 32 0] 
s 0.815505376 _4_ MAC  --- 13 message 90 [0 ffffffff 4 800] ------- [4:255 -1:255 32 0] 
r 0.816225797 _5_ MAC  --- 13 message 32 [0 ffffffff 4 800] ------- [4:255 -1:255 32 0] 
r 0.816225940 _15_ MAC  --- 13 message 32 [0 ffffffff 4 800] ------- [4:255 -1:255 32 0] 
r 0.816225994 _14_ MAC  --- 13 message 32 [0 ffffffff 4 800] ------- [4:255 -1:255 32 0] 
r 0.816226013 _3_ MAC  --- 13 message 32 [0 ffffffff 4 800] ------- [4:255 -1:255 32 0] 
r 0.816226028 _16_ MAC  --- 13 message 32 [0 ffffffff 4 800] ------- [4:255 -1:255 32 0] 
r 0.816226129 _11_ MAC  --- 13 message 32 [0 ffffffff 4 800] ------- [4:255 -1:255 32 0] 
r 0.816226145 _1_ MAC  --- 13 message 32 [0 ffffffff 4 800] ------- [4:255 -1:255 32 0] 
s 0.855773605 _24_ MAC  --- 14 message 90 [0 ffffffff 18 800] ------- [24:255 -1:255 32 0] 
r 0.856494061 _29_ MAC  --- 14 message 32 [0 ffffffff 18 800] ------- [24:255 -1:255 32 0] 
r 0.856494157 _28_ MAC  --- 14 message 32 [0 ffffffff 18 800] ------- [24:255 -1:255 32 0] 
r 0.856494247 _10_ MAC  --- 14 message 32 [0 ffffffff 18 800] ------- [24:255 -1:255 32 0] 
r 0.856494303 _6_ MAC  --- 14 message 32 [0 ffffffff 18 800] ------- [24:255 -1:255 32 0] 
r 0.856494306 _25_ MAC  --- 14 message 32 [0 ffffffff 18 800] ------- [24:255 -1:255 32 0] 
D 1.000000000 _3_ IFQ  ARP 24 tcp 60 [0 0 3 800] ------- [3:3 4:0 32 4] [0 0] 0 0
D 1.000000000 _3_ IFQ  ARP 25 cbr 1020 [0 0 3 800] ------- [3:4 4:1 32 4] [0] 0 0
D 1.000000000 _4_ IFQ  ARP 27 tcp 60 [0 0 4 800] ------- [4:3 5:0 32 5] [0 0] 0 0
D 1.000000000 _4_ IFQ  ARP 28 cbr 1020 [0 0 4 800] ------- [4:4 5:1 32 5] [0] 0 0
D 1.000000000 _5_ IFQ  ARP 30 tcp 60 [0 0 5 800] ------- [5:3 6:0 32 6] [0 0] 0 0
D 1.000000000 _5_ IFQ  ARP 31 cbr 1020 [0 0 5 800] ------- [5:4 6:1 32 6] [0] 0 0
D 1.000000000 _6_ IFQ  ARP 33 tcp 60 [0 0 6 800] ------- [6:3 7:0 32 7] [0 0] 0 0
D 1.000000000 _6_ IFQ  ARP 36 cbr 1020 [0 0 6 800] ------- [6:4 7:2 32 7] [0] 0 0
D 1.000000000 _10_ IFQ  ARP 44 tcp 60 [0 0 a 800] ------- [10:3 11:0 32 11] [0 0] 0 0
D 1.000000000 _10_ IFQ  ARP 45 cbr 1020 [0 0 a 800] ------- [10:4 11:1 32 11] [0] 0 0
D 1.000000000 _11_ IFQ  ARP 47 tcp 60 [0 0 b 800] ------- [11:3 12:0 32 12] [0 0] 0 0
D 1.000000000 _12_ IFQ  ARP 48 tcp 60 [0 0 c 800] ------- [12:1 13:0 32 13] [0 0] 0 0
D 1.000000000 _11_ IFQ  ARP 50 cbr 1020 [0 0 b 800] ------- [11:4 12:2 32 12] [0] 0 0
D 1.000000000 _12_ IFQ  ARP 51 cbr 1020 [0 0 c 800] ------- [12:3 13:2 32 13] [0] 0 0
D 1.000000000 _15_ IFQ  ARP 57 tcp 60 [0 0 f 800] ------- [15:1 16:0 32 16] [0 0] 0 0
D 1.000000000 _15_ IFQ  ARP 60 cbr 1020 [0 0 f 800] ------- [15:3 16:2 32 16] [0] 0 0
D 1.000000000 _21_ IFQ  ARP 69 cbr 1020 [0 0 15 800] ------- [21:1 18:2 32 18] [0] 0 0
D 1.000000000 _17_ IFQ  ARP 65 tcp 60 [0 0 11 800] ------- [17:3 18:0 32 18] [0 0] 0 0
D 1.000000000 _17_ IFQ  ARP 77 cbr 1020 [0 0 11 800] ------- [17:4 18:6 32 18] [0] 0 0
D 1.000000000 _24_ IFQ  ARP 82 tcp 60 [0 0 18 800] ------- [24:1 25:0 32 25] [0 0] 0 0
D 1.000000000 _20_ RTR  IFQ 68 tcp 60 [0 0 0 0] ------- [20:1 21:0 32 0] [0 0] 0 0
D 1.000000000 _24_ IFQ  ARP 88 cbr 1020 [0 0 18 800] ------- [24:3 25:1 32 25] [0] 0 0
D 1.000000000 _26_ IFQ  ARP 95 tcp 60 [0 0 1a 800] ------- [26:1 27:0 32 27] [0 0] 0 0
D 1.000000000 _26_ IFQ  ARP 101 cbr 1020 [0 0 1a 800] ------- [26:3 27:2 32 27] [0] 0 0
s 1.000055000 _21_ MAC  --- 0 ARP 86 [0 ffffffff 15 806] ------- [REQUEST 21/21 0/18]
s 1.000055000 _26_ MAC  --- 0 ARP 86 [0 ffffffff 1a 806] ------- [REQUEST 26/26 0/27]
r 1.000743542 _28_ MAC  --- 0 ARP 28 [0 ffffffff 1a 806] ------- [REQUEST 26/26 0/27]
r 1.000743544 _18_ MAC  --- 0 ARP 28 [0 ffffffff 15 806] ------- [REQUEST 21/21 0/18]
r 1.000743552 _20_ MAC  --- 0 ARP 28 [0 ffffffff 15 806] ------- [REQUEST 21/21 0/18]
r 1.000743569 _7_ MAC  --- 0 ARP 28 [0 ffffffff 1a 806] ------- [REQUEST 26/26 0/27]
r 1.000743581 _16_ MAC  --- 0 ARP 28 [0 ffffffff 15 806] ------- [REQUEST 21/21 0/18]
r 1.000743712 _6_ MAC  --- 0 ARP 28 [0 ffffffff 1a 806] ------- [REQUEST 26/26 0/27]
r 1.000743789 _27_ MAC  --- 0 ARP 28 [0 ffffffff 1a 806] ------- [REQUEST 26/26 0/27]
s 1.001018544 _18_ MAC  --- 0 RTS 44 [52e 15 12 0] 
s 1.001113712 _6_ MAC  --- 0 ARP 86 [0 ffffffff 6 806] ------- [REQUEST 6/6 0/7]
r 1.001371088 _21_ MAC  --- 0 RTS 44 [52e 15 12 0] 
s 1.001381088 _21_ MAC  --- 0 CTS 38 [3f4 12 0 0] 
r 1.001685632 _18_ MAC  --- 0 CTS 38 [3f4 12 0 0] 
s 1.001695632 _18_ MAC  --- 0 ARP 86 [13a 15 12 806] ------- [REPLY 18/18 21/21]
D 1.001802161 _3_ MAC  COL 0 ARP 86 [0 ffffffff 6 806] ------- [REQUEST 6/6 0/7]
r 1.001802270 _7_ MAC  --- 0 ARP 28 [0 ffffffff 6 806] ------- [REQUEST 6/6 0/7]
D 1.001802392 _5_ MAC  COL 0 ARP 86 [0 ffffffff 6 806] ------- [REQUEST 6/6 0/7]
r 1.001802410 _24_ MAC  --- 0 ARP 28 [0 ffffffff 6 806] ------- [REQUEST 6/6 0/7]
r 1.001802425 _26_ MAC  --- 0 ARP 28 [0 ffffffff 6 806] ------- [REQUEST 6/6 0/7]
r 1.001802457 _10_ MAC  --- 0 ARP 28 [0 ffffffff 6 806] ------- [REQUEST 6/6 0/7]
s 1.001952410 _24_ MAC  --- 0 ARP 86 [0 ffffffff 18 806] ------- [REQUEST 24/24 0/25]
r 1.002384176 _21_ MAC  --- 0 ARP 28 [13a 15 12 806] ------- [REPLY 18/18 21/21]
s 1.002394176 _21_ MAC  --- 0 ACK 38 [0 12 0 0] 
r 1.002640867 _29_ MAC  --- 0 ARP 28 [0 ffffffff 18 806] ------- [REQUEST 24/24 0/25]
r 1.002640962 _28_ MAC  --- 0 ARP 28 [0 ffffffff 18 806] ------- [REQUEST 24/24 0/25]
r 1.002641052 _10_ MAC  --- 0 ARP 28 [0 ffffffff 18 806] ------- [REQUEST 24/24 0/25]
r 1.002641108 _6_ MAC  --- 0 ARP 28 [0 ffffffff 18 806] ------- [REQUEST 24/24 0/25]
r 1.002641111 _25_ MAC  --- 0 ARP 28 [0 ffffffff 18 806] ------- [REQUEST 24/24 0/25]
r 1.002698720 _18_ MAC  --- 0 ACK 38 [0 12 0 0] 
s 1.002731108 _6_ MAC  --- 0 ARP 86 [0 ffffffff 6 806] ------- [REQUEST 6/6 0/7]
s 1.003108176 _21_ MAC  --- 0 ARP 86 [0 ffffffff 15 806] ------- [REQUEST 21/21 0/18]
r 1.003419556 _3_ MAC  --- 0 ARP 28 [0 ffffffff 6 806] ------- [REQUEST 6/6 0/7]
r 1.003419666 _7_ MAC  --- 0 ARP 28 [0 ffffffff 6 806] ------- [REQUEST 6/6 0/7]
r 1.003419788 _5_ MAC  --- 0 ARP 28 [0 ffffffff 6 806] ------- [REQUEST 6/6 0/7]
r 1.003419806 _24_ MAC  --- 0 ARP 28 [0 ffffffff 6 806] ------- [REQUEST 6/6 0/7]
r 1.003419821 _26_ MAC  --- 0 ARP 28 [0 ffffffff 6 806] ------- [REQUEST 6/6 0/7]
r 1.003419853 _10_ MAC  --- 0 ARP 28 [0 ffffffff 6 806] ------- [REQUEST 6/6 0/7]
s 1.003509853 _10_ MAC  --- 0 ARP 86 [0 ffffffff a 806] ------- [REQUEST 10/10 0/11]
r 1.003796720 _18_ MAC  --- 0 ARP 28 [0 ffffffff 15 806] ------- [REQUEST 21/21 0/18]
r 1.003796729 _20_ MAC  --- 0 ARP 28 [0 ffffffff 15 806] ------- [REQUEST 21/21 0/18]
D 1.003796757 _16_ MAC  COL 0 ARP 86 [0 ffffffff 15 806] ------- [REQUEST 21/21 0/18]
s 1.003846176 _21_ MAC  --- 0 RTS 44 [6ee 12 15 0] 
s 1.004054388 _27_ MAC  --- 0 RTS 44 [52e 1a 1b 0] 
D 1.004055667 _6_ MAC  COL 0 ARP 86 [0 ffffffff a 806] ------- [REQUEST 10/10 0/11]
r 1.004198367 _5_ MAC  --- 0 ARP 28 [0 ffffffff a 806] ------- [REQUEST 10/10 0/11]
D 1.004198438 _11_ MAC  COL 0 ARP 86 [0 ffffffff a 806] ------- [REQUEST 10/10 0/11]
r 1.004198494 _24_ MAC  --- 0 ARP 28 [0 ffffffff a 806] ------- [REQUEST 10/10 0/11]
D 1.004198566 _13_ MAC  COL 0 ARP 86 [0 ffffffff a 806] ------- [REQUEST 10/10 0/11]
r 1.004198613 _25_ MAC  --- 0 ARP 28 [0 ffffffff a 806] ------- [REQUEST 10/10 0/11]
r 1.004198625 _23_ MAC  --- 0 ARP 28 [0 ffffffff a 806] ------- [REQUEST 10/10 0/11]
r 1.004198720 _18_ MAC  --- 0 RTS 44 [6ee 12 15 0] 
s 1.004208720 _18_ MAC  --- 0 CTS 38 [5b4 15 0 0] 
D 1.004407177 _26_ MAC  COL 0 RTS 44 [52e 1a 1b 0] 
r 1.004513264 _21_ MAC  --- 0 CTS 38 [5b4 15 0 0] 
s 1.004523264 _21_ MAC  --- 73 ping 142 [13a 12 15 800] ------- [21:3 18:4 32 18] 
s 1.004747853 _10_ MAC  --- 0 ARP 86 [0 ffffffff a 806] ------- [REQUEST 10/10 0/11]
D 1.004748367 _5_ MAC  COL 0 ARP 86 [0 ffffffff a 806] ------- [REQUEST 10/10 0/11]
D 1.004748438 _11_ MAC  COL 0 ARP 86 [0 ffffffff a 806] ------- [REQUEST 10/10 0/11]
D 1.004748566 _13_ MAC  COL 0 ARP 86 [0 ffffffff a 806] ------- [REQUEST 10/10 0/11]
r 1.005436494 _24_ MAC  --- 0 ARP 28 [0 ffffffff a 806] ------- [REQUEST 10/10 0/11]
r 1.005436597 _6_ MAC  --- 0 ARP 28 [0 ffffffff a 806] ------- [REQUEST 10/10 0/11]
r 1.005436613 _25_ MAC  --- 0 ARP 28 [0 ffffffff a 806] ------- [REQUEST 10/10 0/11]
r 1.005436625 _23_ MAC  --- 0 ARP 28 [0 ffffffff a 806] ------- [REQUEST 10/10 0/11]
s 1.005485853 _10_ MAC  --- 0 ARP 86 [0 ffffffff a 806] ------- [REQUEST 10/10 0/11]
r 1.005659808 _18_ MAC  --- 73 ping 84 [13a 12 15 800] ------- [21:3 18:4 32 18] 
s 1.005669808 _18_ MAC  --- 0 ACK 38 [0 15 0 0] 
s 1.005754388 _27_ MAC  --- 0 RTS 44 [52e 1a 1b 0] 
D 1.005755177 _26_ MAC  COL 0 RTS 44 [52e 1a 1b 0] 
r 1.005974352 _21_ MAC  --- 0 ACK 38 [0 15 0 0] 
D 1.006174367 _5_ MAC  COL 0 ARP 86 [0 ffffffff a 806] ------- [REQUEST 10/10 0/11]
D 1.006174438 _11_ MAC  COL 0 ARP 86 [0 ffffffff a 806] ------- [REQUEST 10/10 0/11]
r 1.006174494 _24_ MAC  --- 0 ARP 28 [0 ffffffff a 806] ------- [REQUEST 10/10 0/11]
D 1.006174566 _13_ MAC  COL 0 ARP 86 [0 ffffffff a 806] ------- [REQUEST 10/10 0/11]
D 1.006174597 _6_ MAC  COL 0 ARP 86 [0 ffffffff a 806] ------- [REQUEST 10/10 0/11]
r 1.006174613 _25_ MAC  --- 0 ARP 28 [0 ffffffff a 806] ------- [REQUEST 10/10 0/11]
r 1.006174625 _23_ MAC  --- 0 ARP 28 [0 ffffffff a 806] ------- [REQUEST 10/10 0/11]
s 1.006264613 _25_ MAC  --- 0 ARP 86 [0 ffffffff 19 806] ------- [REQUEST 25/25 0/24]
s 1.006314481 _17_ MAC  --- 0 ARP 86 [0 ffffffff 11 806] ------- [REQUEST 17/17 0/18]
s 1.006514388 _27_ MAC  --- 0 RTS 44 [52e 1a 1b 0] 
D 1.006515177 _26_ MAC  COL 0 RTS 44 [52e 1a 1b 0] 
r 1.006953169 _30_ MAC  --- 0 ARP 28 [0 ffffffff 19 806] ------- [REQUEST 25/25 0/24]
r 1.006953190 _23_ MAC  --- 0 ARP 28 [0 ffffffff 19 806] ------- [REQUEST 25/25 0/24]
r 1.006953246 _29_ MAC  --- 0 ARP 28 [0 ffffffff 19 806] ------- [REQUEST 25/25 0/24]
r 1.006953314 _24_ MAC  --- 0 ARP 28 [0 ffffffff 19 806] ------- [REQUEST 25/25 0/24]
r 1.006953373 _10_ MAC  --- 0 ARP 28 [0 ffffffff 19 806] ------- [REQUEST 25/25 0/24]
r 1.007003072 _15_ MAC  --- 0 ARP 28 [0 ffffffff 11 806] ------- [REQUEST 17/17 0/18]
r 1.007003092 _1_ MAC  --- 0 ARP 28 [0 ffffffff 11 806] ------- [REQUEST 17/17 0/18]
r 1.007003165 _18_ MAC  --- 0 ARP 28 [0 ffffffff 11 806] ------- [REQUEST 17/17 0/18]
D 1.007003311 _0_ MAC  COL 0 ARP 86 [0 ffffffff 11 806] ------- [REQUEST 17/17 0/18]
s 1.007153165 _18_ MAC  --- 0 RTS 44 [52e 15 12 0] 
s 1.007423169 _30_ MAC  --- 0 ARP 86 [0 ffffffff 1e 806] ------- [REQUEST 30/30 0/25]
r 1.007505709 _21_ MAC  --- 0 RTS 44 [52e 15 12 0] 
s 1.007515709 _21_ MAC  --- 0 CTS 38 [3f4 12 0 0] 
s 1.007538088 _7_ MAC  --- 0 RTS 44 [52e 6 7 0] 
D 1.007538645 _6_ MAC  COL 0 RTS 44 [52e 6 7 0] 
r 1.007820253 _18_ MAC  --- 0 CTS 38 [3f4 12 0 0] 
s 1.007830253 _18_ MAC  --- 0 ARP 86 [13a 15 12 806] ------- [REPLY 18/18 21/21]
r 1.008111726 _25_ MAC  --- 0 ARP 28 [0 ffffffff 1e 806] ------- [REQUEST 30/30 0/25]
r 1.008111872 _29_ MAC  --- 0 ARP 28 [0 ffffffff 1e 806] ------- [REQUEST 30/30 0/25]
s 1.008385885 _25_ MAC  --- 0 RTS 44 [6ee 18 19 0] 
r 1.008518797 _21_ MAC  --- 0 ARP 28 [13a 15 12 806] ------- [REPLY 18/18 21/21]
s 1.008528797 _21_ MAC  --- 0 ACK 38 [0 12 0 0] 
r 1.008738585 _24_ MAC  --- 0 RTS 44 [6ee 18 19 0] 
s 1.008748585 _24_ MAC  --- 0 CTS 38 [5b4 19 0 0] 
r 1.008833341 _18_ MAC  --- 0 ACK 38 [0 12 0 0] 
s 1.008923341 _18_ MAC  --- 0 RTS 44 [52e 11 12 0] 
r 1.009053286 _25_ MAC  --- 0 CTS 38 [5b4 19 0 0] 
s 1.009063286 _25_ MAC  --- 105 ping 142 [13a 18 19 800] ------- [25:6 24:6 32 24] 
r 1.009276025 _17_ MAC  --- 0 RTS 44 [52e 11 12 0] 
s 1.009286025 _17_ MAC  --- 0 CTS 38 [3f4 12 0 0] 
r 1.009590710 _18_ MAC  --- 0 CTS 38 [3f4 12 0 0] 
s 1.009600710 _18_ MAC  --- 0 ARP 86 [13a 11 12 806] ------- [REPLY 18/18 17/17]
r 1.010199987 _24_ MAC  --- 105 ping 84 [13a 18 19 800] ------- [25:6 24:6 32 24] 
s 1.010209987 _24_ MAC  --- 0 ACK 38 [0 19 0 0] 
r 1.010289394 _17_ MAC  --- 0 ARP 28 [13a 11 12 806] ------- [REPLY 18/18 17/17]
s 1.010299394 _17_ MAC  --- 0 ACK 38 [0 12 0 0] 
r 1.010514688 _25_ MAC  --- 0 ACK 38 [0 19 0 0] 
r 1.010604078 _18_ MAC  --- 0 ACK 38 [0 12 0 0] 
s 1.010693984 _15_ MAC  --- 0 ARP 86 [0 ffffffff f 806] ------- [REQUEST 15/15 0/16]
s 1.010863987 _24_ MAC  --- 0 ARP 86 [0 ffffffff 18 806] ------- [REQUEST 24/24 0/25]
r 1.011382492 _16_ MAC  --- 0 ARP 28 [0 ffffffff f 806] ------- [REQUEST 15/15 0/16]
r 1.011382524 _18_ MAC  --- 0 ARP 28 [0 ffffffff f 806] ------- [REQUEST 15/15 0/16]
r 1.011382548 _4_ MAC  --- 0 ARP 28 [0 ffffffff f 806] ------- [REQUEST 15/15 0/16]
r 1.011382575 _17_ MAC  --- 0 ARP 28 [0 ffffffff f 806] ------- [REQUEST 15/15 0/16]
r 1.011382645 _1_ MAC  --- 0 ARP 28 [0 ffffffff f 806] ------- [REQUEST 15/15 0/16]
s 1.011431984 _15_ MAC  --- 0 ARP 86 [0 ffffffff f 806] ------- [REQUEST 15/15 0/16]
r 1.011552443 _29_ MAC  --- 0 ARP 28 [0 ffffffff 18 806] ------- [REQUEST 24/24 0/25]
r 1.011552538 _28_ MAC  --- 0 ARP 28 [0 ffffffff 18 806] ------- [REQUEST 24/24 0/25]
D 1.011552629 _10_ MAC  COL 0 ARP 86 [0 ffffffff 18 806] ------- [REQUEST 24/24 0/25]
D 1.011552685 _6_ MAC  COL 0 ARP 86 [0 ffffffff 18 806] ------- [REQUEST 24/24 0/25]
r 1.011552688 _25_ MAC  --- 0 ARP 28 [0 ffffffff 18 806] ------- [REQUEST 24/24 0/25]
s 1.011802688 _25_ MAC  --- 0 RTS 44 [52e 18 19 0] 
r 1.012120492 _16_ MAC  --- 0 ARP 28 [0 ffffffff f 806] ------- [REQUEST 15/15 0/16]
r 1.012120524 _18_ MAC  --- 0 ARP 28 [0 ffffffff f 806] ------- [REQUEST 15/15 0/16]
r 1.012120548 _4_ MAC  --- 0 ARP 28 [0 ffffffff f 806] ------- [REQUEST 15/15 0/16]
r 1.012120575 _17_ MAC  --- 0 ARP 28 [0 ffffffff f 806] ------- [REQUEST 15/15 0/16]
r 1.012120645 _1_ MAC  --- 0 ARP 28 [0 ffffffff f 806] ------- [REQUEST 15/15 0/16]
r 1.012155388 _24_ MAC  --- 0 RTS 44 [52e 18 19 0] 
s 1.012165388 _24_ MAC  --- 0 CTS 38 [3f4 19 0 0] 
s 1.012250492 _16_ MAC  --- 0 RTS 44 [52e f 10 0] 
r 1.012470089 _25_ MAC  --- 0 CTS 38 [3f4 19 0 0] 
s 1.012480089 _25_ MAC  --- 0 ARP 86 [13a 18 19 806] ------- [REPLY 25/25 24/24]
r 1.012603000 _15_ MAC  --- 0 RTS 44 [52e f 10 0] 
s 1.012613000 _15_ MAC  --- 0 CTS 38 [3f4 10 0 0] 
r 1.012917508 _16_ MAC  --- 0 CTS 38 [3f4 10 0 0] 
s 1.012927508 _16_ MAC  --- 0 ARP 86 [13a f 10 806] ------- [REPLY 16/16 15/15]
r 1.013168790 _24_ MAC  --- 0 ARP 28 [13a 18 19 806] ------- [REPLY 25/25 24/24]
s 1.013178790 _24_ MAC  --- 0 ACK 38 [0 19 0 0] 
r 1.013483491 _25_ MAC  --- 0 ACK 38 [0 19 0 0] 
r 1.013616015 _15_ MAC  --- 0 ARP 28 [13a f 10 806] ------- [REPLY 16/16 15/15]
s 1.013626015 _15_ MAC  --- 0 ACK 38 [0 10 0 0] 
s 1.013873491 _25_ MAC  --- 0 RTS 44 [52e 1e 19 0] 
r 1.013930523 _16_ MAC  --- 0 ACK 38 [0 10 0 0] 
s 1.014200015 _15_ MAC  --- 0 ARP 86 [0 ffffffff f 806] ------- [REQUEST 15/15 0/16]
r 1.014226047 _30_ MAC  --- 0 RTS 44 [52e 1e 19 0] 
s 1.014236047 _30_ MAC  --- 0 CTS 38 [3f4 19 0 0] 
r 1.014540604 _25_ MAC  --- 0 CTS 38 [3f4 19 0 0] 
s 1.014550604 _25_ MAC  --- 0 ARP 86 [13a 1e 19 806] ------- [REPLY 25/25 30/30]
r 1.014888523 _16_ MAC  --- 0 ARP 28 [0 ffffffff f 806] ------- [REQUEST 15/15 0/16]
r 1.014888555 _18_ MAC  --- 0 ARP 28 [0 ffffffff f 806] ------- [REQUEST 15/15 0/16]
r 1.014888579 _4_ MAC  --- 0 ARP 28 [0 ffffffff f 806] ------- [REQUEST 15/15 0/16]
r 1.014888606 _17_ MAC  --- 0 ARP 28 [0 ffffffff f 806] ------- [REQUEST 15/15 0/16]
r 1.014888676 _1_ MAC  --- 0 ARP 28 [0 ffffffff f 806] ------- [REQUEST 15/15 0/16]
s 1.014938430 _27_ MAC  --- 0 RTS 44 [52e 1a 1b 0] 
s 1.015058523 _16_ MAC  --- 0 RTS 44 [52e f 10 0] 
r 1.015239161 _30_ MAC  --- 0 ARP 28 [13a 1e 19 806] ------- [REPLY 25/25 30/30]
s 1.015249161 _30_ MAC  --- 0 ACK 38 [0 19 0 0] 
D 1.015291220 _26_ MAC  COL 0 RTS 44 [52e 1a 1b 0] 
r 1.015411031 _15_ MAC  --- 0 RTS 44 [52e f 10 0] 
s 1.015421031 _15_ MAC  --- 0 CTS 38 [3f4 10 0 0] 
r 1.015553717 _25_ MAC  --- 0 ACK 38 [0 19 0 0] 
D 1.015625000 _3_ RTR  CBK 26 ping 84 [0 0 3 800] ------- [3:5 4:2 32 4] 
D 1.015625000 _3_ RTR  CBK 117 cbr 1020 [0 0 3 800] ------- [3:4 4:1 32 4] [1] 0 0
D 1.015625000 _4_ RTR  CBK 29 ping 84 [0 0 4 800] ------- [4:5 5:2 32 5] 
D 1.015625000 _4_ RTR  CBK 118 cbr 1020 [0 0 4 800] ------- [4:4 5:1 32 5] [1] 0 0
D 1.015625000 _6_ RTR  CBK 39 ping 84 [0 0 6 800] ------- [6:5 7:4 32 7] 
D 1.015625000 _6_ RTR  CBK 120 cbr 1020 [0 0 6 800] ------- [6:4 7:2 32 7] [1] 0 0
D 1.015625000 _10_ RTR  CBK 46 ping 84 [0 0 a 800] ------- [10:5 11:2 32 11] 
D 1.015625000 _10_ RTR  CBK 124 cbr 1020 [0 0 a 800] ------- [10:4 11:1 32 11] [1] 0 0
D 1.015625000 _11_ RTR  CBK 53 ping 84 [0 0 b 800] ------- [11:5 12:4 32 12] 
D 1.015625000 _11_ RTR  CBK 125 cbr 1020 [0 0 b 800] ------- [11:4 12:2 32 12] [1] 0 0
D 1.015625000 _12_ RTR  CBK 54 ping 84 [0 0 c 800] ------- [12:5 13:4 32 13] 
D 1.015625000 _12_ RTR  CBK 126 cbr 1020 [0 0 c 800] ------- [12:3 13:2 32 13] [1] 0 0
D 1.015625000 _20_ RTR  IFQ 72 cbr 1020 [0 0 0 0] ------- [20:3 21:2 32 0] [0] 0 0
D 1.015625000 _20_ RTR  IFQ 76 ping 84 [0 0 0 0] ------- [20:5 21:4 32 0] 
D 1.015625000 _26_ RTR  CBK 107 ping 84 [0 0 1a 800] ------- [26:5 27:4 32 27] 
D 1.015625000 _26_ RTR  CBK 143 cbr 1020 [0 0 1a 800] ------- [26:3 27:2 32 27] [1] 0 0
s 1.015643717 _25_ MAC  --- 0 RTS 44 [52e 18 19 0] 
r 1.015725538 _16_ MAC  --- 0 CTS 38 [3f4 10 0 0] 
s 1.015735538 _16_ MAC  --- 0 ARP 86 [13a f 10 806] ------- [REPLY 16/16 15/15]
r 1.015996418 _24_ MAC  --- 0 RTS 44 [52e 18 19 0] 
s 1.016006418 _24_ MAC  --- 0 CTS 38 [3f4 19 0 0] 
r 1.016311119 _25_ MAC  --- 0 CTS 38 [3f4 19 0 0] 
s 1.016321119 _25_ MAC  --- 0 ARP 86 [13a 18 19 806] ------- [REPLY 25/25 24/24]
r 1.016424046 _15_ MAC  --- 0 ARP 28 [13a f 10 806] ------- [REPLY 16/16 15/15]
s 1.016434046 _15_ MAC  --- 0 ACK 38 [0 10 0 0] 
r 1.016738554 _16_ MAC  --- 0 ACK 38 [0 10 0 0] 
s 1.016868554 _16_ MAC  --- 0 RTS 44 [52e f 10 0] 
r 1.017009820 _24_ MAC  --- 0 ARP 28 [13a 18 19 806] ------- [REPLY 25/25 24/24]
s 1.017019820 _24_ MAC  --- 0 ACK 38 [0 19 0 0] 
r 1.017221062 _15_ MAC  --- 0 RTS 44 [52e f 10 0] 
s 1.017231062 _15_ MAC  --- 0 CTS 38 [3f4 10 0 0] 
r 1.017324520 _25_ MAC  --- 0 ACK 38 [0 19 0 0] 
s 1.017393820 _24_ MAC  --- 0 ARP 86 [0 ffffffff 18 806] ------- [REQUEST 24/24 0/25]
r 1.017535569 _16_ MAC  --- 0 CTS 38 [3f4 10 0 0] 
s 1.017545569 _16_ MAC  --- 0 ARP 86 [13a f 10 806] ------- [REPLY 16/16 15/15]
r 1.018082276 _29_ MAC  --- 0 ARP 28 [0 ffffffff 18 806] ------- [REQUEST 24/24 0/25]
r 1.018082371 _28_ MAC  --- 0 ARP 28 [0 ffffffff 18 806] ------- [REQUEST 24/24 0/25]
r 1.018082461 _10_ MAC  --- 0 ARP 28 [0 ffffffff 18 806] ------- [REQUEST 24/24 0/25]
r 1.018082517 _6_ MAC  --- 0 ARP 28 [0 ffffffff 18 806] ------- [REQUEST 24/24 0/25]
r 1.018082520 _25_ MAC  --- 0 ARP 28 [0 ffffffff 18 806] ------- [REQUEST 24/24 0/25]
s 1.018131820 _24_ MAC  --- 0 RTS 44 [6ee 19 18 0] 
r 1.018234077 _15_ MAC  --- 0 ARP 28 [13a f 10 806] ------- [REPLY 16/16 15/15]
s 1.018244077 _15_ MAC  --- 0 ACK 38 [0 10 0 0] 
r 1.018484520 _25_ MAC  --- 0 RTS 44 [6ee 19 18 0] 
s 1.018494520 _25_ MAC  --- 0 CTS 38 [5b4 18 0 0] 
r 1.018548585 _16_ MAC  --- 0 ACK 38 [0 10 0 0] 
s 1.018728630 _17_ MAC  --- 0 ARP 86 [0 ffffffff 11 806] ------- [REQUEST 17/17 0/18]
r 1.018799221 _24_ MAC  --- 0 CTS 38 [5b4 18 0 0] 
s 1.018809221 _24_ MAC  --- 93 ping 142 [13a 19 18 800] ------- [24:5 25:2 32 25] 
r 1.019417221 _15_ MAC  --- 0 ARP 28 [0 ffffffff 11 806] ------- [REQUEST 17/17 0/18]
r 1.019417241 _1_ MAC  --- 0 ARP 28 [0 ffffffff 11 806] ------- [REQUEST 17/17 0/18]
r 1.019417315 _18_ MAC  --- 0 ARP 28 [0 ffffffff 11 806] ------- [REQUEST 17/17 0/18]
r 1.019417460 _0_ MAC  --- 0 ARP 28 [0 ffffffff 11 806] ------- [REQUEST 17/17 0/18]
s 1.019627221 _15_ MAC  --- 0 RTS 44 [6ee 10 f 0] 
r 1.019945922 _25_ MAC  --- 93 ping 84 [13a 19 18 800] ------- [24:5 25:2 32 25] 
s 1.019955922 _25_ MAC  --- 0 ACK 38 [0 18 0 0] 
r 1.019979729 _16_ MAC  --- 0 RTS 44 [6ee 10 f 0] 
s 1.019989729 _16_ MAC  --- 0 CTS 38 [5b4 f 0 0] 
r 1.020260623 _24_ MAC  --- 0 ACK 38 [0 18 0 0] 
r 1.020294236 _15_ MAC  --- 0 CTS 38 [5b4 f 0 0] 
s 1.020304236 _15_ MAC  --- 63 ping 142 [13a 10 f 800] ------- [15:5 16:4 32 16] 
s 1.020370623 _24_ MAC  --- 0 RTS 44 [52e 19 18 0] 
r 1.020723324 _25_ MAC  --- 0 RTS 44 [52e 19 18 0] 
s 1.020733324 _25_ MAC  --- 0 CTS 38 [3f4 18 0 0] 
r 1.021038024 _24_ MAC  --- 0 CTS 38 [3f4 18 0 0] 
s 1.021048024 _24_ MAC  --- 0 ARP 86 [13a 19 18 806] ------- [REPLY 24/24 25/25]
r 1.021440744 _16_ MAC  --- 63 ping 84 [13a 10 f 800] ------- [15:5 16:4 32 16] 
s 1.021450744 _16_ MAC  --- 0 ACK 38 [0 f 0 0] 
r 1.021736725 _25_ MAC  --- 0 ARP 28 [13a 19 18 806] ------- [REPLY 24/24 25/25]
s 1.021746725 _25_ MAC  --- 0 ACK 38 [0 18 0 0] 
r 1.021755252 _15_ MAC  --- 0 ACK 38 [0 f 0 0] 
s 1.022045387 _18_ MAC  --- 0 RTS 44 [52e 11 12 0] 
r 1.022051426 _24_ MAC  --- 0 ACK 38 [0 18 0 0] 
r 1.022398071 _17_ MAC  --- 0 RTS 44 [52e 11 12 0] 
s 1.022408071 _17_ MAC  --- 0 CTS 38 [3f4 12 0 0] 
s 1.022431067 _30_ MAC  --- 0 RTS 44 [242e 19 1e 0] 
r 1.022712755 _18_ MAC  --- 0 CTS 38 [3f4 12 0 0] 
s 1.022722755 _18_ MAC  --- 0 ARP 86 [13a 11 12 806] ------- [REPLY 18/18 17/17]
r 1.022783624 _25_ MAC  --- 0 RTS 44 [242e 19 1e 0] 
s 1.022793624 _25_ MAC  --- 0 CTS 38 [22f4 1e 0 0] 
r 1.023098181 _30_ MAC  --- 0 CTS 38 [22f4 1e 0 0] 
s 1.023108181 _30_ MAC  --- 99 cbr 1078 [13a 19 1e 800] ------- [30:1 25:4 32 25] [0] 0 0
s 1.023371665 _27_ MAC  --- 0 RTS 44 [52e 1a 1b 0] 
D 1.023372454 _26_ MAC  COL 0 RTS 44 [52e 1a 1b 0] 
r 1.023411440 _17_ MAC  --- 0 ARP 28 [13a 11 12 806] ------- [REPLY 18/18 17/17]
s 1.023421440 _17_ MAC  --- 0 ACK 38 [0 12 0 0] 
r 1.023726124 _18_ MAC  --- 0 ACK 38 [0 12 0 0] 
s 1.023836030 _15_ MAC  --- 0 RTS 44 [242e 10 f 0] 
r 1.024188538 _16_ MAC  --- 0 RTS 44 [242e 10 f 0] 
s 1.024198538 _16_ MAC  --- 0 CTS 38 [22f4 f 0 0] 
r 1.024503046 _15_ MAC  --- 0 CTS 38 [22f4 f 0 0] 
s 1.024513046 _15_ MAC  --- 129 cbr 1078 [13a 10 f 800] ------- [15:3 16:2 32 16] [1] 0 0
s 1.025791665 _27_ MAC  --- 0 RTS 44 [52e 1a 1b 0] 
D 1.025792454 _26_ MAC  COL 0 RTS 44 [52e 1a 1b 0] 
D 1.031250000 _20_ RTR  IFQ 83 tcp 60 [0 0 0 0] ------- [20:6 21:6 32 0] [0 0] 0 0
D 1.031250000 _20_ RTR  IFQ 84 cbr 1020 [0 0 0 0] ------- [20:7 21:7 32 0] [0] 0 0
r 1.031732737 _25_ MAC  --- 99 cbr 1020 [13a 19 1e 800] ------- [30:1 25:4 32 25] [0] 1 0
s 1.031742737 _25_ MAC  --- 0 ACK 38 [0 1e 0 0] 
r 1.032047294 _30_ MAC  --- 0 ACK 38 [0 1e 0 0] 
s 1.032177294 _30_ MAC  --- 0 RTS 44 [242e 19 1e 0] 
r 1.032529850 _25_ MAC  --- 0 RTS 44 [242e 19 1e 0] 
s 1.032539850 _25_ MAC  --- 0 CTS 38 [22f4 1e 0 0] 
r 1.032844407 _30_ MAC  --- 0 CTS 38 [22f4 1e 0 0] 
s 1.032854407 _30_ MAC  --- 141 cbr 1078 [13a 19 1e 800] ------- [30:1 25:4 32 25] [1] 0 0
r 1.033137553 _16_ MAC  --- 129 cbr 1020 [13a 10 f 800] ------- [15:3 16:2 32 16] [1] 1 0
s 1.033147553 _16_ MAC  --- 0 ACK 38 [0 f 0 0] 
s 1.033351665 _27_ MAC  --- 0 RTS 44 [52e 1a 1b 0] 
D 1.033352454 _26_ MAC  COL 0 RTS 44 [52e 1a 1b 0] 
r 1.033452061 _15_ MAC  --- 0 ACK 38 [0 f 0 0] 
s 1.033701553 _16_ MAC  --- 0 RTS 44 [6ee f 10 0] 