n -t * -s 0  -x 126 -y 1010 -Z 0 -z 20  -v circle -c black
n -t * -s 1  -x 364 -y 1018 -Z 0 -z 20  -v circle -c black
n -t * -s 2  -x 612 -y 1020 -Z 0 -z 20  -v circle -c black
n -t * -s 3  -x 780 -y 1018 -Z 0 -z 20  -v circle -c black
n -t * -s 4  -x 960 -y 1020 -Z 0 -z 20  -v circle -c black
n -t * -s 5  -x 1180 -y 1020 -Z 0 -z 20  -v circle -c black
n -t * -s 6  -x 1372 -y 1020 -Z 0 -z 20  -v circle -c black
n -t * -s 7  -x 1534 -y 1026 -Z 0 -z 20  -v circle -c black
n -t * -s 8  -x 1720 -y 1020 -Z 0 -z 20  -v circle -c black
n -t * -s 9  -x 1920 -y 1012 -Z 0 -z 20  -v circle -c black
n -t * -s 10  -x 154 -y 582 -Z 0 -z 20  -v circle -c black
n -t * -s 11  -x 334 -y 578 -Z 0 -z 20  -v circle -c black
n -t * -s 12  -x 496 -y 578 -Z 0 -z 20  -v circle -c black
n -t * -s 13  -x 652 -y 578 -Z 0 -z 20  -v circle -c black
n -t * -s 14  -x 822 -y 578 -Z 0 -z 20  -v circle -c black
n -t * -s 15  -x 964 -y 578 -Z 0 -z 20  -v circle -c black
n -t * -s 16  -x 1126 -y 578 -Z 0 -z 20  -v circle -c black
n -t * -s 17  -x 1322 -y 578 -Z 0 -z 20  -v circle -c black
n -t * -s 18  -x 1532 -y 578 -Z 0 -z 20  -v circle -c black
n -t * -s 19  -x 1730 -y 582 -Z 0 -z 20  -v circle -c black
n -t * -s 20  -x 1900 -y 582 -Z 0 -z 20  -v circle -c black
n -t * -s 21  -x 2044 -y 582 -Z 0 -z 20  -v circle -c black
n -t * -s 22  -x 160 -y 170 -Z 0 -z 20  -v circle -c black
n -t * -s 23  -x 318 -y 178 -Z 0 -z 20  -v circle -c black
n -t * -s 24  -x 448 -y 160 -Z 0 -z 20  -v circle -c black
n -t * -s 25  -x 670 -y 160 -Z 0 -z 20  -v circle -c black
n -t * -s 26  -x 844 -y 160 -Z 0 -z 20  -v circle -c black
n -t * -s 27  -x 1040 -y 160 -Z 0 -z 20  -v circle -c black
n -t * -s 28  -x 1210 -y 160 -Z 0 -z 20  -v circle -c black
n -t * -s 29  -x 1400 -y 160 -Z 0 -z 20  -v circle -c black
n -t * -s 30  -x 1560 -y 160 -Z 0 -z 20  -v circle -c black
n -t * -s 31  -x 1698 -y 172 -Z 0 -z 20  -v circle -c black
n -t * -s 32  -x 1824 -y 174 -Z 0 -z 20  -v circle -c black
n -t * -s 33  -x 1940 -y 174 -Z 0 -z 20  -v circle -c black
n -t * -s 34  -x 2052 -y 176 -Z 0 -z 20  -v circle -c black
V -t * -v 1.0a5 -a 0
W -t * -x 1000 -y 1000
A -t * -n 1 -p 0 -o 0x7fffffff -c 30 -a 1
A -t * -h 1 -m 1073741823 -s 0
+ -t 0.027921950 -s 34 -d -1 -p message -e 90 -c 2 -a 0 -i 0 -k MAC 
- -t 0.027921950 -s 34 -d -1 -p message -e 90 -c 2 -a 0 -i 0 -k MAC
h -t 0.027921950 -s 34 -d -1 -p message -e 90 -c 2 -a 0 -i 0 -k MAC
r -t 0.028642324 -s 33 -d -1 -p message -e 32 -c 2 -a 0 -i 0 -k MAC
r -t 0.028642710 -s 32 -d -1 -p message -e 32 -c 2 -a 0 -i 0 -k MAC
+ -t 0.088234053 -s 3 -d -1 -p message -e 90 -c 2 -a 0 -i 1 -k MAC 
- -t 0.088234053 -s 3 -d -1 -p message -e 90 -c 2 -a 0 -i 1 -k MAC
h -t 0.088234053 -s 3 -d -1 -p message -e 90 -c 2 -a 0 -i 1 -k MAC
r -t 0.088954613 -s 2 -d -1 -p message -e 32 -c 2 -a 0 -i 1 -k MAC
r -t 0.088954653 -s 4 -d -1 -p message -e 32 -c 2 -a 0 -i 1 -k MAC
+ -t 0.119718496 -s 33 -d -1 -p message -e 90 -c 2 -a 0 -i 2 -k MAC 
- -t 0.119718496 -s 33 -d -1 -p message -e 90 -c 2 -a 0 -i 2 -k MAC
h -t 0.119718496 -s 33 -d -1 -p message -e 90 -c 2 -a 0 -i 2 -k MAC
r -t 0.120438870 -s 34 -d -1 -p message -e 32 -c 2 -a 0 -i 2 -k MAC
r -t 0.120438883 -s 32 -d -1 -p message -e 32 -c 2 -a 0 -i 2 -k MAC
r -t 0.120439303 -s 31 -d -1 -p message -e 32 -c 2 -a 0 -i 2 -k MAC
+ -t 0.191865879 -s 9 -d -1 -p message -e 90 -c 2 -a 0 -i 3 -k MAC 
- -t 0.191865879 -s 9 -d -1 -p message -e 90 -c 2 -a 0 -i 3 -k MAC
h -t 0.191865879 -s 9 -d -1 -p message -e 90 -c 2 -a 0 -i 3 -k MAC
r -t 0.192586546 -s 8 -d -1 -p message -e 32 -c 2 -a 0 -i 3 -k MAC
+ -t 0.226318901 -s 26 -d -1 -p message -e 90 -c 2 -a 0 -i 4 -k MAC 
- -t 0.226318901 -s 26 -d -1 -p message -e 90 -c 2 -a 0 -i 4 -k MAC
h -t 0.226318901 -s 26 -d -1 -p message -e 90 -c 2 -a 0 -i 4 -k MAC
r -t 0.227039481 -s 25 -d -1 -p message -e 32 -c 2 -a 0 -i 4 -k MAC
r -t 0.227039555 -s 27 -d -1 -p message -e 32 -c 2 -a 0 -i 4 -k MAC
+ -t 0.231207004 -s 32 -d -1 -p message -e 90 -c 2 -a 0 -i 5 -k MAC 
- -t 0.231207004 -s 32 -d -1 -p message -e 90 -c 2 -a 0 -i 5 -k MAC
h -t 0.231207004 -s 32 -d -1 -p message -e 90 -c 2 -a 0 -i 5 -k MAC
r -t 0.231927391 -s 33 -d -1 -p message -e 32 -c 2 -a 0 -i 5 -k MAC
r -t 0.231927424 -s 31 -d -1 -p message -e 32 -c 2 -a 0 -i 5 -k MAC
r -t 0.231927764 -s 34 -d -1 -p message -e 32 -c 2 -a 0 -i 5 -k MAC
+ -t 0.232708714 -s 5 -d -1 -p message -e 90 -c 2 -a 0 -i 6 -k MAC 
- -t 0.232708714 -s 5 -d -1 -p message -e 90 -c 2 -a 0 -i 6 -k MAC
h -t 0.232708714 -s 5 -d -1 -p message -e 90 -c 2 -a 0 -i 6 -k MAC
r -t 0.233429354 -s 6 -d -1 -p message -e 32 -c 2 -a 0 -i 6 -k MAC
r -t 0.233429448 -s 4 -d -1 -p message -e 32 -c 2 -a 0 -i 6 -k MAC
+ -t 0.329307815 -s 2 -d -1 -p message -e 90 -c 2 -a 0 -i 7 -k MAC 
- -t 0.329307815 -s 2 -d -1 -p message -e 90 -c 2 -a 0 -i 7 -k MAC
h -t 0.329307815 -s 2 -d -1 -p message -e 90 -c 2 -a 0 -i 7 -k MAC
r -t 0.330028375 -s 3 -d -1 -p message -e 32 -c 2 -a 0 -i 7 -k MAC
r -t 0.330028641 -s 1 -d -1 -p message -e 32 -c 2 -a 0 -i 7 -k MAC
+ -t 0.358491971 -s 8 -d -1 -p message -e 90 -c 2 -a 0 -i 8 -k MAC 
- -t 0.358491971 -s 8 -d -1 -p message -e 90 -c 2 -a 0 -i 8 -k MAC
h -t 0.358491971 -s 8 -d -1 -p message -e 90 -c 2 -a 0 -i 8 -k MAC
r -t 0.359212591 -s 7 -d -1 -p message -e 32 -c 2 -a 0 -i 8 -k MAC
r -t 0.359212638 -s 9 -d -1 -p message -e 32 -c 2 -a 0 -i 8 -k MAC
+ -t 0.378806069 -s 28 -d -1 -p message -e 90 -c 2 -a 0 -i 9 -k MAC 
- -t 0.378806069 -s 28 -d -1 -p message -e 90 -c 2 -a 0 -i 9 -k MAC
h -t 0.378806069 -s 28 -d -1 -p message -e 90 -c 2 -a 0 -i 9 -k MAC
r -t 0.379526636 -s 27 -d -1 -p message -e 32 -c 2 -a 0 -i 9 -k MAC
r -t 0.379526703 -s 29 -d -1 -p message -e 32 -c 2 -a 0 -i 9 -k MAC
+ -t 0.441329178 -s 19 -d -1 -p message -e 90 -c 2 -a 0 -i 10 -k MAC 
- -t 0.441329178 -s 19 -d -1 -p message -e 90 -c 2 -a 0 -i 10 -k MAC
h -t 0.441329178 -s 19 -d -1 -p message -e 90 -c 2 -a 0 -i 10 -k MAC
r -t 0.442049745 -s 20 -d -1 -p message -e 32 -c 2 -a 0 -i 10 -k MAC
r -t 0.442049838 -s 18 -d -1 -p message -e 32 -c 2 -a 0 -i 10 -k MAC
+ -t 0.486482294 -s 20 -d -1 -p message -e 90 -c 2 -a 0 -i 11 -k MAC 
- -t 0.486482294 -s 20 -d -1 -p message -e 90 -c 2 -a 0 -i 11 -k MAC
h -t 0.486482294 -s 20 -d -1 -p message -e 90 -c 2 -a 0 -i 11 -k MAC
r -t 0.487202774 -s 21 -d -1 -p message -e 32 -c 2 -a 0 -i 11 -k MAC
r -t 0.487202861 -s 19 -d -1 -p message -e 32 -c 2 -a 0 -i 11 -k MAC
+ -t 0.523607796 -s 12 -d -1 -p message -e 90 -c 2 -a 0 -i 12 -k MAC 
- -t 0.523607796 -s 12 -d -1 -p message -e 90 -c 2 -a 0 -i 12 -k MAC
h -t 0.523607796 -s 12 -d -1 -p message -e 90 -c 2 -a 0 -i 12 -k MAC
r -t 0.524328316 -s 13 -d -1 -p message -e 32 -c 2 -a 0 -i 12 -k MAC
r -t 0.524328336 -s 11 -d -1 -p message -e 32 -c 2 -a 0 -i 12 -k MAC
+ -t 0.621283005 -s 0 -d -1 -p message -e 90 -c 2 -a 0 -i 13 -k MAC 
- -t 0.621283005 -s 0 -d -1 -p message -e 90 -c 2 -a 0 -i 13 -k MAC
h -t 0.621283005 -s 0 -d -1 -p message -e 90 -c 2 -a 0 -i 13 -k MAC
r -t 0.622003799 -s 1 -d -1 -p message -e 32 -c 2 -a 0 -i 13 -k MAC
+ -t 0.706777007 -s 11 -d -1 -p message -e 90 -c 2 -a 0 -i 14 -k MAC 
- -t 0.706777007 -s 11 -d -1 -p message -e 90 -c 2 -a 0 -i 14 -k MAC
h -t 0.706777007 -s 11 -d -1 -p message -e 90 -c 2 -a 0 -i 14 -k MAC
r -t 0.707497547 -s 12 -d -1 -p message -e 32 -c 2 -a 0 -i 14 -k MAC
r -t 0.707497608 -s 10 -d -1 -p message -e 32 -c 2 -a 0 -i 14 -k MAC
+ -t 0.816142411 -s 27 -d -1 -p message -e 90 -c 2 -a 0 -i 15 -k MAC 
- -t 0.816142411 -s 27 -d -1 -p message -e 90 -c 2 -a 0 -i 15 -k MAC
h -t 0.816142411 -s 27 -d -1 -p message -e 90 -c 2 -a 0 -i 15 -k MAC
r -t 0.816862978 -s 28 -d -1 -p message -e 32 -c 2 -a 0 -i 15 -k MAC
r -t 0.816863064 -s 26 -d -1 -p message -e 32 -c 2 -a 0 -i 15 -k MAC
+ -t 0.818206324 -s 13 -d -1 -p message -e 90 -c 2 -a 0 -i 17 -k MAC 
- -t 0.818206324 -s 13 -d -1 -p message -e 90 -c 2 -a 0 -i 17 -k MAC
h -t 0.818206324 -s 13 -d -1 -p message -e 90 -c 2 -a 0 -i 17 -k MAC
r -t 0.818926844 -s 12 -d -1 -p message -e 32 -c 2 -a 0 -i 17 -k MAC
r -t 0.818926891 -s 14 -d -1 -p message -e 32 -c 2 -a 0 -i 17 -k MAC
+ -t 0.819361719 -s 25 -d -1 -p message -e 90 -c 2 -a 0 -i 16 -k MAC 
- -t 0.819361719 -s 25 -d -1 -p message -e 90 -c 2 -a 0 -i 16 -k MAC
h -t 0.819361719 -s 25 -d -1 -p message -e 90 -c 2 -a 0 -i 16 -k MAC
r -t 0.820082299 -s 26 -d -1 -p message -e 32 -c 2 -a 0 -i 16 -k MAC
r -t 0.820082459 -s 24 -d -1 -p message -e 32 -c 2 -a 0 -i 16 -k MAC
+ -t 0.849549993 -s 7 -d -1 -p message -e 90 -c 2 -a 0 -i 18 -k MAC 
- -t 0.849549993 -s 7 -d -1 -p message -e 90 -c 2 -a 0 -i 18 -k MAC
h -t 0.849549993 -s 7 -d -1 -p message -e 90 -c 2 -a 0 -i 18 -k MAC
r -t 0.850270533 -s 6 -d -1 -p message -e 32 -c 2 -a 0 -i 18 -k MAC
r -t 0.850270613 -s 8 -d -1 -p message -e 32 -c 2 -a 0 -i 18 -k MAC
+ -t 0.940043408 -s 15 -d -1 -p message -e 90 -c 2 -a 0 -i 19 -k MAC 
- -t 0.940043408 -s 15 -d -1 -p message -e 90 -c 2 -a 0 -i 19 -k MAC
h -t 0.940043408 -s 15 -d -1 -p message -e 90 -c 2 -a 0 -i 19 -k MAC
r -t 0.940763881 -s 14 -d -1 -p message -e 32 -c 2 -a 0 -i 19 -k MAC
r -t 0.940763948 -s 16 -d -1 -p message -e 32 -c 2 -a 0 -i 19 -k MAC
+ -t 1.046420418 -s 14 -d -1 -p message -e 90 -c 2 -a 0 -i 70 -k MAC 
- -t 1.046420418 -s 14 -d -1 -p message -e 90 -c 2 -a 0 -i 70 -k MAC
h -t 1.046420418 -s 14 -d -1 -p message -e 90 -c 2 -a 0 -i 70 -k MAC
r -t 1.047140891 -s 15 -d -1 -p message -e 32 -c 2 -a 0 -i 70 -k MAC
r -t 1.047140984 -s 13 -d -1 -p message -e 32 -c 2 -a 0 -i 70 -k MAC
d -t 1.078125000 -s 27 -d -1 -p cbr -e 1020 -c 2 -a 0 -i 30 -k RTR
d -t 1.078125000 -s 14 -d -1 -p cbr -e 1020 -c 2 -a 0 -i 31 -k RTR
d -t 1.078125000 -s 15 -d -1 -p cbr -e 1020 -c 2 -a 0 -i 32 -k RTR
d -t 1.078125000 -s 19 -d -1 -p cbr -e 1020 -c 2 -a 0 -i 34 -k RTR
d -t 1.078125000 -s 13 -d -1 -p cbr -e 1020 -c 2 -a 0 -i 35 -k RTR
d -t 1.078125000 -s 33 -d -1 -p cbr -e 1020 -c 2 -a 0 -i 36 -k RTR
d -t 1.078125000 -s 10 -d -1 -p cbr -e 1020 -c 2 -a 0 -i 37 -k RTR
d -t 1.078125000 -s 22 -d -1 -p cbr -e 1020 -c 2 -a 0 -i 38 -k RTR
d -t 1.078125000 -s 29 -d -1 -p cbr -e 1020 -c 2 -a 0 -i 39 -k RTR
d -t 1.093750000 -s 27 -d -1 -p cbr -e 1020 -c 2 -a 0 -i 50 -k RTR
d -t 1.093750000 -s 14 -d -1 -p cbr -e 1020 -c 2 -a 0 -i 51 -k RTR
d -t 1.093750000 -s 15 -d -1 -p cbr -e 1020 -c 2 -a 0 -i 52 -k RTR
d -t 1.093750000 -s 19 -d -1 -p cbr -e 1020 -c 2 -a 0 -i 54 -k RTR
d -t 1.093750000 -s 13 -d -1 -p cbr -e 1020 -c 2 -a 0 -i 55 -k RTR
d -t 1.093750000 -s 33 -d -1 -p cbr -e 1020 -c 2 -a 0 -i 56 -k RTR
d -t 1.093750000 -s 10 -d -1 -p cbr -e 1020 -c 2 -a 0 -i 57 -k RTR
d -t 1.093750000 -s 22 -d -1 -p cbr -e 1020 -c 2 -a 0 -i 58 -k RTR
d -t 1.093750000 -s 29 -d -1 -p cbr -e 1020 -c 2 -a 0 -i 59 -k RTR
d -t 1.109375000 -s 27 -d -1 -p cbr -e 1020 -c 2 -a 0 -i 60 -k RTR
d -t 1.109375000 -s 14 -d -1 -p cbr -e 1020 -c 2 -a 0 -i 61 -k RTR
d -t 1.109375000 -s 15 -d -1 -p cbr -e 1020 -c 2 -a 0 -i 62 -k RTR
d -t 1.109375000 -s 19 -d -1 -p cbr -e 1020 -c 2 -a 0 -i 64 -k RTR
d -t 1.109375000 -s 13 -d -1 -p cbr -e 1020 -c 2 -a 0 -i 65 -k RTR
d -t 1.109375000 -s 33 -d -1 -p cbr -e 1020 -c 2 -a 0 -i 66 -k RTR
d -t 1.109375000 -s 10 -d -1 -p cbr -e 1020 -c 2 -a 0 -i 67 -k RTR
d -t 1.109375000 -s 22 -d -1 -p cbr -e 1020 -c 2 -a 0 -i 68 -k RTR
d -t 1.109375000 -s 29 -d -1 -p cbr -e 1020 -c 2 -a 0 -i 69 -k RTR
d -t 1.125000000 -s 27 -d -1 -p cbr -e 1020 -c 2 -a 0 -i 71 -k RTR
d -t 1.125000000 -s 14 -d -1 -p cbr -e 1020 -c 2 -a 0 -i 72 -k RTR
d -t 1.125000000 -s 15 -d -1 -p cbr -e 1020 -c 2 -a 0 -i 73 -k RTR
d -t 1.125000000 -s 19 -d -1 -p cbr -e 1020 -c 2 -a 0 -i 75 -k RTR
d -t 1.125000000 -s 13 -d -1 -p cbr -e 1020 -c 2 -a 0 -i 76 -k RTR
d -t 1.125000000 -s 33 -d -1 -p cbr -e 1020 -c 2 -a 0 -i 77 -k RTR
d -t 1.125000000 -s 10 -d -1 -p cbr -e 1020 -c 2 -a 0 -i 78 -k RTR
d -t 1.125000000 -s 22 -d -1 -p cbr -e 1020 -c 2 -a 0 -i 79 -k RTR
d -t 1.125000000 -s 29 -d -1 -p cbr -e 1020 -c 2 -a 0 -i 80 -k RTR
d -t 1.140625000 -s 27 -d -1 -p cbr -e 1020 -c 2 -a 0 -i 81 -k RTR
d -t 1.140625000 -s 14 -d -1 -p cbr -e 1020 -c 2 -a 0 -i 82 -k RTR
d -t 1.140625000 -s 15 -d -1 -p cbr -e 1020 -c 2 -a 0 -i 83 -k RTR
d -t 1.140625000 -s 19 -d -1 -p cbr -e 1020 -c 2 -a 0 -i 85 -k RTR
d -t 1.140625000 -s 13 -d -1 -p cbr -e 1020 -c 2 -a 0 -i 86 -k RTR
d -t 1.140625000 -s 33 -d -1 -p cbr -e 1020 -c 2 -a 0 -i 87 -k RTR
d -t 1.140625000 -s 10 -d -1 -p cbr -e 1020 -c 2 -a 0 -i 88 -k RTR
d -t 1.140625000 -s 22 -d -1 -p cbr -e 1020 -c 2 -a 0 -i 89 -k RTR
d -t 1.140625000 -s 29 -d -1 -p cbr -e 1020 -c 2 -a 0 -i 90 -k RTR
d -t 1.156250000 -s 27 -d -1 -p cbr -e 1020 -c 2 -a 0 -i 91 -k RTR
d -t 1.156250000 -s 14 -d -1 -p cbr -e 1020 -c 2 -a 0 -i 92 -k RTR
d -t 1.156250000 -s 15 -d -1 -p cbr -e 1020 -c 2 -a 0 -i 93 -k RTR
d -t 1.156250000 -s 19 -d -1 -p cbr -e 1020 -c 2 -a 0 -i 95 -k RTR
d -t 1.156250000 -s 13 -d -1 -p cbr -e 1020 -c 2 -a 0 -i 96 -k RTR
d -t 1.156250000 -s 33 -d -1 -p cbr -e 1020 -c 2 -a 0 -i 97 -k RTR
d -t 1.156250000 -s 10 -d -1 -p cbr -e 1020 -c 2 -a 0 -i 98 -k RTR
d -t 1.156250000 -s 22 -d -1 -p cbr -e 1020 -c 2 -a 0 -i 99 -k RTR
d -t 1.156250000 -s 29 -d -1 -p cbr -e 1020 -c 2 -a 0 -i 100 -k RTR
d -t 1.171875000 -s 27 -d -1 -p cbr -e 1020 -c 2 -a 0 -i 101 -k RTR
d -t 1.171875000 -s 14 -d -1 -p cbr -e 1020 -c 2 -a 0 -i 102 -k RTR
d -t 1.171875000 -s 15 -d -1 -p cbr -e 1020 -c 2 -a 0 -i 103 -k RTR
d -t 1.171875000 -s 19 -d -1 -p cbr -e 1020 -c 2 -a 0 -i 105 -k RTR
d -t 1.171875000 -s 13 -d -1 -p cbr -e 1020 -c 2 -a 0 -i 106 -k RTR
d -t 1.171875000 -s 33 -d -1 -p cbr -e 1020 -c 2 -a 0 -i 107 -k RTR
d -t 1.171875000 -s 10 -d -1 -p cbr -e 1020 -c 2 -a 0 -i 108 -k RTR
d -t 1.171875000 -s 22 -d -1 -p cbr -e 1020 -c 2 -a 0 -i 109 -k RTR
d -t 1.171875000 -s 29 -d -1 -p cbr -e 1020 -c 2 -a 0 -i 110 -k RTR
d -t 1.187500000 -s 27 -d -1 -p cbr -e 1020 -c 2 -a 0 -i 111 -k RTR
d -t 1.187500000 -s 14 -d -1 -p cbr -e 1020 -c 2 -a 0 -i 112 -k RTR
d -t 1.187500000 -s 15 -d -1 -p cbr -e 1020 -c 2 -a 0 -i 113 -k RTR
d -t 1.187500000 -s 19 -d -1 -p cbr -e 1020 -c 2 -a 0 -i 115 -k RTR
d -t 1.187500000 -s 13 -d -1 -p cbr -e 1020 -c 2 -a 0 -i 116 -k RTR
d -t 1.187500000 -s 33 -d -1 -p cbr -e 1020 -c 2 -a 0 -i 117 -k RTR
d -t 1.187500000 -s 10 -d -1 -p cbr -e 1020 -c 2 -a 0 -i 118 -k RTR
d -t 1.187500000 -s 22 -d -1 -p cbr -e 1020 -c 2 -a 0 -i 119 -k RTR
d -t 1.187500000 -s 29 -d -1 -p cbr -e 1020 -c 2 -a 0 -i 120 -k RTR
d -t 1.203125000 -s 27 -d -1 -p cbr -e 1020 -c 2 -a 0 -i 121 -k RTR
d -t 1.203125000 -s 14 -d -1 -p cbr -e 1020 -c 2 -a 0 -i 122 -k RTR
d -t 1.203125000 -s 15 -d -1 -p cbr -e 1020 -c 2 -a 0 -i 123 -k RTR
d -t 1.203125000 -s 19 -d -1 -p cbr -e 1020 -c 2 -a 0 -i 125 -k RTR
d -t 1.203125000 -s 13 -d -1 -p cbr -e 1020 -c 2 -a 0 -i 126 -k RTR
d -t 1.203125000 -s 33 -d -1 -p cbr -e 1020 -c 2 -a 0 -i 127 -k RTR
d -t 1.203125000 -s 10 -d -1 -p cbr -e 1020 -c 2 -a 0 -i 128 -k RTR
d -t 1.203125000 -s 22 -d -1 -p cbr -e 1020 -c 2 -a 0 -i 129 -k RTR
d -t 1.203125000 -s 29 -d -1 -p cbr -e 1020 -c 2 -a 0 -i 130 -k RTR
d -t 1.218750000 -s 27 -d -1 -p cbr -e 1020 -c 2 -a 0 -i 131 -k RTR
d -t 1.218750000 -s 14 -d -1 -p cbr -e 1020 -c 2 -a 0 -i 132 -k RTR
d -t 1.218750000 -s 15 -d -1 -p cbr -e 1020 -c 2 -a 0 -i 133 -k RTR
d -t 1.218750000 -s 19 -d -1 -p cbr -e 1020 -c 2 -a 0 -i 135 -k RTR
d -t 1.218750000 -s 13 -d -1 -p cbr -e 1020 -c 2 -a 0 -i 136 -k RTR
d -t 1.218750000 -s 33 -d -1 -p cbr -e 1020 -c 2 -a 0 -i 137 -k RTR
d -t 1.218750000 -s 10 -d -1 -p cbr -e 1020 -c 2 -a 0 -i 138 -k RTR
d -t 1.218750000 -s 22 -d -1 -p cbr -e 1020 -c 2 -a 0 -i 139 -k RTR
d -t 1.218750000 -s 29 -d -1 -p cbr -e 1020 -c 2 -a 0 -i 140 -k RTR
d -t 1.234375000 -s 27 -d -1 -p cbr -e 1020 -c 2 -a 0 -i 141 -k RTR
d -t 1.234375000 -s 14 -d -1 -p cbr -e 1020 -c 2 -a 0 -i 142 -k RTR
d -t 1.234375000 -s 15 -d -1 -p cbr -e 1020 -c 2 -a 0 -i 143 -k RTR
d -t 1.234375000 -s 19 -d -1 -p cbr -e 1020 -c 2 -a 0 -i 145 -k RTR
d -t 1.234375000 -s 13 -d -1 -p cbr -e 1020 -c 2 -a 0 -i 146 -k RTR
d -t 1.234375000 -s 33 -d -1 -p cbr -e 1020 -c 2 -a 0 -i 147 -k RTR
d -t 1.234375000 -s 10 -d -1 -p cbr -e 1020 -c 2 -a 0 -i 148 -k RTR
d -t 1.234375000 -s 22 -d -1 -p cbr -e 1020 -c 2 -a 0 -i 149 -k RTR
d -t 1.234375000 -s 29 -d -1 -p cbr -e 1020 -c 2 -a 0 -i 150 -k RTR
d -t 1.250000000 -s 27 -d -1 -p cbr -e 1020 -c 2 -a 0 -i 151 -k RTR
d -t 1.250000000 -s 14 -d -1 -p cbr -e 1020 -c 2 -a 0 -i 152 -k RTR
d -t 1.250000000 -s 15 -d -1 -p cbr -e 1020 -c 2 -a 0 -i 153 -k RTR
d -t 1.250000000 -s 19 -d -1 -p cbr -e 1020 -c 2 -a 0 -i 155 -k RTR
d -t 1.250000000 -s 13 -d -1 -p cbr -e 1020 -c 2 -a 0 -i 156 -k RTR
d -t 1.250000000 -s 33 -d -1 -p cbr -e 1020 -c 2 -a 0 -i 157 -k RTR
d -t 1.250000000 -s 10 -d -1 -p cbr -e 1020 -c 2 -a 0 -i 158 -k RTR
d -t 1.250000000 -s 22 -d -1 -p cbr -e 1020 -c 2 -a 0 -i 159 -k RTR
d -t 1.250000000 -s 29 -d -1 -p cbr -e 1020 -c 2 -a 0 -i 160 -k RTR
d -t 1.265625000 -s 27 -d -1 -p cbr -e 1020 -c 2 -a 0 -i 161 -k RTR
d -t 1.265625000 -s 14 -d -1 -p cbr -e 1020 -c 2 -a 0 -i 162 -k RTR
d -t 1.265625000 -s 15 -d -1 -p cbr -e 1020 -c 2 -a 0 -i 163 -k RTR
d -t 1.265625000 -s 19 -d -1 -p cbr -e 1020 -c 2 -a 0 -i 165 -k RTR
d -t 1.265625000 -s 13 -d -1 -p cbr -e 1020 -c 2 -a 0 -i 166 -k RTR
d -t 1.265625000 -s 33 -d -1 -p cbr -e 1020 -c 2 -a 0 -i 167 -k RTR
d -t 1.265625000 -s 10 -d -1 -p cbr -e 1020 -c 2 -a 0 -i 168 -k RTR
d -t 1.265625000 -s 22 -d -1 -p cbr -e 1020 -c 2 -a 0 -i 169 -k RTR
d -t 1.265625000 -s 29 -d -1 -p cbr -e 1020 -c 2 -a 0 -i 170 -k RTR
d -t 1.281250000 -s 27 -d -1 -p cbr -e 1020 -c 2 -a 0 -i 171 -k RTR
d -t 1.281250000 -s 14 -d -1 -p cbr -e 1020 -c 2 -a 0 -i 172 -k RTR
d -t 1.281250000 -s 15 -d -1 -p cbr -e 1020 -c 2 -a 0 -i 173 -k RTR
d -t 1.281250000 -s 19 -d -1 -p cbr -e 1020 -c 2 -a 0 -i 175 -k RTR
d -t 1.281250000 -s 13 -d -1 -p cbr -e 1020 -c 2 -a 0 -i 176 -k RTR
d -t 1.281250000 -s 33 -d -1 -p cbr -e 1020 -c 2 -a 0 -i 177 -k RTR
d -t 1.281250000 -s 10 -d -1 -p cbr -e 1020 -c 2 -a 0 -i 178 -k RTR
d -t 1.281250000 -s 22 -d -1 -p cbr -e 1020 -c 2 -a 0 -i 179 -k RTR
d -t 1.281250000 -s 29 -d -1 -p cbr -e 1020 -c 2 -a 0 -i 180 -k RTR
+ -t 1.281977166 -s 4 -d -1 -p message -e 90 -c 2 -a 0 -i 221 -k MAC 
- -t 1.281977166 -s 4 -d -1 -p message -e 90 -c 2 -a 0 -i 221 -k MAC
h -t 1.281977166 -s 4 -d -1 -p message -e 90 -c 2 -a 0 -i 221 -k MAC
r -t 1.282697766 -s 3 -d -1 -p message -e 32 -c 2 -a 0 -i 221 -k MAC
r -t 1.282697900 -s 5 -d -1 -p message -e 32 -c 2 -a 0 -i 221 -k MAC
d -t 1.296875000 -s 27 -d -1 -p cbr -e 1020 -c 2 -a 0 -i 181 -k RTR
d -t 1.296875000 -s 14 -d -1 -p cbr -e 1020 -c 2 -a 0 -i 182 -k RTR
d -t 1.296875000 -s 15 -d -1 -p cbr -e 1020 -c 2 -a 0 -i 183 -k RTR
d -t 1.296875000 -s 19 -d -1 -p cbr -e 1020 -c 2 -a 0 -i 185 -k RTR
d -t 1.296875000 -s 13 -d -1 -p cbr -e 1020 -c 2 -a 0 -i 186 -k RTR
d -t 1.296875000 -s 33 -d -1 -p cbr -e 1020 -c 2 -a 0 -i 187 -k RTR
d -t 1.296875000 -s 10 -d -1 -p cbr -e 1020 -c 2 -a 0 -i 188 -k RTR
d -t 1.296875000 -s 22 -d -1 -p cbr -e 1020 -c 2 -a 0 -i 189 -k RTR
d -t 1.296875000 -s 29 -d -1 -p cbr -e 1020 -c 2 -a 0 -i 190 -k RTR
d -t 1.312500000 -s 27 -d -1 -p cbr -e 1020 -c 2 -a 0 -i 191 -k RTR
d -t 1.312500000 -s 14 -d -1 -p cbr -e 1020 -c 2 -a 0 -i 192 -k RTR
d -t 1.312500000 -s 15 -d -1 -p cbr -e 1020 -c 2 -a 0 -i 193 -k RTR
d -t 1.312500000 -s 19 -d -1 -p cbr -e 1020 -c 2 -a 0 -i 195 -k RTR
d -t 1.312500000 -s 13 -d -1 -p cbr -e 1020 -c 2 -a 0 -i 196 -k RTR
d -t 1.312500000 -s 33 -d -1 -p cbr -e 1020 -c 2 -a 0 -i 197 -k RTR
d -t 1.312500000 -s 10 -d -1 -p cbr -e 1020 -c 2 -a 0 -i 198 -k RTR
d -t 1.312500000 -s 22 -d -1 -p cbr -e 1020 -c 2 -a 0 -i 199 -k RTR
d -t 1.312500000 -s 29 -d -1 -p cbr -e 1020 -c 2 -a 0 -i 200 -k RTR
d -t 1.328125000 -s 27 -d -1 -p cbr -e 1020 -c 2 -a 0 -i 201 -k RTR
d -t 1.328125000 -s 14 -d -1 -p cbr -e 1020 -c 2 -a 0 -i 202 -k RTR
d -t 1.328125000 -s 15 -d -1 -p cbr -e 1020 -c 2 -a 0 -i 203 -k RTR
d -t 1.328125000 -s 19 -d -1 -p cbr -e 1020 -c 2 -a 0 -i 205 -k RTR
d -t 1.328125000 -s 13 -d -1 -p cbr -e 1020 -c 2 -a 0 -i 206 -k RTR
d -t 1.328125000 -s 33 -d -1 -p cbr -e 1020 -c 2 -a 0 -i 207 -k RTR
d -t 1.328125000 -s 10 -d -1 -p cbr -e 1020 -c 2 -a 0 -i 208 -k RTR
d -t 1.328125000 -s 22 -d -1 -p cbr -e 1020 -c 2 -a 0 -i 209 -k RTR
d -t 1.328125000 -s 29 -d -1 -p cbr -e 1020 -c 2 -a 0 -i 210 -k RTR
d -t 1.343750000 -s 27 -d -1 -p cbr -e 1020 -c 2 -a 0 -i 211 -k RTR
d -t 1.343750000 -s 14 -d -1 -p cbr -e 1020 -c 2 -a 0 -i 212 -k RTR
d -t 1.343750000 -s 15 -d -1 -p cbr -e 1020 -c 2 -a 0 -i 213 -k RTR
d -t 1.343750000 -s 19 -d -1 -p cbr -e 1020 -c 2 -a 0 -i 215 -k RTR
d -t 1.343750000 -s 13 -d -1 -p cbr -e 1020 -c 2 -a 0 -i 216 -k RTR
d -t 1.343750000 -s 33 -d -1 -p cbr -e 1020 -c 2 -a 0 -i 217 -k RTR
d -t 1.343750000 -s 10 -d -1 -p cbr -e 1020 -c 2 -a 0 -i 218 -k RTR
d -t 1.343750000 -s 22 -d -1 -p cbr -e 1020 -c 2 -a 0 -i 219 -k RTR
d -t 1.343750000 -s 29 -d -1 -p cbr -e 1020 -c 2 -a 0 -i 220 -k RTR
d -t 1.359375000 -s 27 -d -1 -p cbr -e 1020 -c 2 -a 0 -i 222 -k RTR
d -t 1.359375000 -s 14 -d -1 -p cbr -e 1020 -c 2 -a 0 -i 223 -k RTR
d -t 1.359375000 -s 15 -d -1 -p cbr -e 1020 -c 2 -a 0 -i 224 -k RTR
d -t 1.359375000 -s 19 -d -1 -p cbr -e 1020 -c 2 -a 0 -i 226 -k RTR
d -t 1.359375000 -s 13 -d -1 -p cbr -e 1020 -c 2 -a 0 -i 227 -k RTR
d -t 1.359375000 -s 33 -d -1 -p cbr -e 1020 -c 2 -a 0 -i 228 -k RTR
d -t 1.359375000 -s 10 -d -1 -p cbr -e 1020 -c 2 -a 0 -i 229 -k RTR
d -t 1.359375000 -s 22 -d -1 -p cbr -e 1020 -c 2 -a 0 -i 230 -k RTR
d -t 1.359375000 -s 29 -d -1 -p cbr -e 1020 -c 2 -a 0 -i 231 -k RTR
+ -t 1.362394968 -s 22 -d -1 -p message -e 90 -c 2 -a 0 -i 272 -k MAC 
- -t 1.362394968 -s 22 -d -1 -p message -e 90 -c 2 -a 0 -i 272 -k MAC
h -t 1.362394968 -s 22 -d -1 -p message -e 90 -c 2 -a 0 -i 272 -k MAC
r -t 1.363115495 -s 23 -d -1 -p message -e 32 -c 2 -a 0 -i 272 -k MAC
d -t 1.375000000 -s 27 -d -1 -p cbr -e 1020 -c 2 -a 0 -i 232 -k RTR
d -t 1.375000000 -s 14 -d -1 -p cbr -e 1020 -c 2 -a 0 -i 233 -k RTR
d -t 1.375000000 -s 15 -d -1 -p cbr -e 1020 -c 2 -a 0 -i 234 -k RTR
d -t 1.375000000 -s 19 -d -1 -p cbr -e 1020 -c 2 -a 0 -i 236 -k RTR
d -t 1.375000000 -s 13 -d -1 -p cbr -e 1020 -c 2 -a 0 -i 237 -k RTR
d -t 1.375000000 -s 33 -d -1 -p cbr -e 1020 -c 2 -a 0 -i 238 -k RTR
d -t 1.375000000 -s 10 -d -1 -p cbr -e 1020 -c 2 -a 0 -i 239 -k RTR
d -t 1.375000000 -s 22 -d -1 -p cbr -e 1020 -c 2 -a 0 -i 240 -k RTR
d -t 1.375000000 -s 29 -d -1 -p cbr -e 1020 -c 2 -a 0 -i 241 -k RTR
+ -t 1.388608278 -s 16 -d -1 -p message -e 90 -c 2 -a 0 -i 293 -k MAC 
- -t 1.388608278 -s 16 -d -1 -p message -e 90 -c 2 -a 0 -i 293 -k MAC
h -t 1.388608278 -s 16 -d -1 -p message -e 90 -c 2 -a 0 -i 293 -k MAC
r -t 1.389328818 -s 15 -d -1 -p message -e 32 -c 2 -a 0 -i 293 -k MAC
r -t 1.389328932 -s 17 -d -1 -p message -e 32 -c 2 -a 0 -i 293 -k MAC
d -t 1.390625000 -s 27 -d -1 -p cbr -e 1020 -c 2 -a 0 -i 242 -k RTR
d -t 1.390625000 -s 14 -d -1 -p cbr -e 1020 -c 2 -a 0 -i 243 -k RTR
d -t 1.390625000 -s 15 -d -1 -p cbr -e 1020 -c 2 -a 0 -i 244 -k RTR
d -t 1.390625000 -s 19 -d -1 -p cbr -e 1020 -c 2 -a 0 -i 246 -k RTR
d -t 1.390625000 -s 13 -d -1 -p cbr -e 1020 -c 2 -a 0 -i 247 -k RTR
d -t 1.390625000 -s 33 -d -1 -p cbr -e 1020 -c 2 -a 0 -i 248 -k RTR
d -t 1.390625000 -s 10 -d -1 -p cbr -e 1020 -c 2 -a 0 -i 249 -k RTR
d -t 1.390625000 -s 22 -d -1 -p cbr -e 1020 -c 2 -a 0 -i 250 -k RTR
d -t 1.390625000 -s 29 -d -1 -p cbr -e 1020 -c 2 -a 0 -i 251 -k RTR
d -t 1.406250000 -s 27 -d -1 -p cbr -e 1020 -c 2 -a 0 -i 252 -k RTR
d -t 1.406250000 -s 14 -d -1 -p cbr -e 1020 -c 2 -a 0 -i 253 -k RTR
d -t 1.406250000 -s 15 -d -1 -p cbr -e 1020 -c 2 -a 0 -i 254 -k RTR
d -t 1.406250000 -s 19 -d -1 -p cbr -e 1020 -c 2 -a 0 -i 256 -k RTR
d -t 1.406250000 -s 13 -d -1 -p cbr -e 1020 -c 2 -a 0 -i 257 -k RTR
d -t 1.406250000 -s 33 -d -1 -p cbr -e 1020 -c 2 -a 0 -i 258 -k RTR
d -t 1.406250000 -s 10 -d -1 -p cbr -e 1020 -c 2 -a 0 -i 259 -k RTR
d -t 1.406250000 -s 22 -d -1 -p cbr -e 1020 -c 2 -a 0 -i 260 -k RTR
d -t 1.406250000 -s 29 -d -1 -p cbr -e 1020 -c 2 -a 0 -i 261 -k RTR
d -t 1.421875000 -s 27 -d -1 -p cbr -e 1020 -c 2 -a 0 -i 262 -k RTR
d -t 1.421875000 -s 14 -d -1 -p cbr -e 1020 -c 2 -a 0 -i 263 -k RTR
d -t 1.421875000 -s 15 -d -1 -p cbr -e 1020 -c 2 -a 0 -i 264 -k RTR
d -t 1.421875000 -s 19 -d -1 -p cbr -e 1020 -c 2 -a 0 -i 266 -k RTR
d -t 1.421875000 -s 13 -d -1 -p cbr -e 1020 -c 2 -a 0 -i 267 -k RTR
d -t 1.421875000 -s 33 -d -1 -p cbr -e 1020 -c 2 -a 0 -i 268 -k RTR
d -t 1.421875000 -s 10 -d -1 -p cbr -e 1020 -c 2 -a 0 -i 269 -k RTR
d -t 1.421875000 -s 22 -d -1 -p cbr -e 1020 -c 2 -a 0 -i 270 -k RTR
d -t 1.421875000 -s 29 -d -1 -p cbr -e 1020 -c 2 -a 0 -i 271 -k RTR
d -t 1.437500000 -s 27 -d -1 -p cbr -e 1020 -c 2 -a 0 -i 273 -k RTR
d -t 1.437500000 -s 14 -d -1 -p cbr -e 1020 -c 2 -a 0 -i 274 -k RTR
d -t 1.437500000 -s 15 -d -1 -p cbr -e 1020 -c 2 -a 0 -i 275 -k RTR
d -t 1.437500000 -s 19 -d -1 -p cbr -e 1020 -c 2 -a 0 -i 277 -k RTR
d -t 1.437500000 -s 13 -d -1 -p cbr -e 1020 -c 2 -a 0 -i 278 -k RTR
d -t 1.437500000 -s 33 -d -1 -p cbr -e 1020 -c 2 -a 0 -i 279 -k RTR
d -t 1.437500000 -s 10 -d -1 -p cbr -e 1020 -c 2 -a 0 -i 280 -k RTR
d -t 1.437500000 -s 22 -d -1 -p cbr -e 1020 -c 2 -a 0 -i 281 -k RTR
d -t 1.437500000 -s 29 -d -1 -p cbr -e 1020 -c 2 -a 0 -i 282 -k RTR
d -t 1.453125000 -s 27 -d -1 -p cbr -e 1020 -c 2 -a 0 -i 283 -k RTR
d -t 1.453125000 -s 14 -d -1 -p cbr -e 1020 -c 2 -a 0 -i 284 -k RTR
d -t 1.453125000 -s 15 -d -1 -p cbr -e 1020 -c 2 -a 0 -i 285 -k RTR
d -t 1.453125000 -s 19 -d -1 -p cbr -e 1020 -c 2 -a 0 -i 287 -k RTR
d -t 1.453125000 -s 13 -d -1 -p cbr -e 1020 -c 2 -a 0 -i 288 -k RTR
d -t 1.453125000 -s 33 -d -1 -p cbr -e 1020 -c 2 -a 0 -i 289 -k RTR
d -t 1.453125000 -s 10 -d -1 -p cbr -e 1020 -c 2 -a 0 -i 290 -k RTR
d -t 1.453125000 -s 22 -d -1 -p cbr -e 1020 -c 2 -a 0 -i 291 -k RTR
d -t 1.453125000 -s 29 -d -1 -p cbr -e 1020 -c 2 -a 0 -i 292 -k RTR
d -t 1.468750000 -s 27 -d -1 -p cbr -e 1020 -c 2 -a 0 -i 294 -k RTR
d -t 1.468750000 -s 14 -d -1 -p cbr -e 1020 -c 2 -a 0 -i 295 -k RTR
d -t 1.468750000 -s 15 -d -1 -p cbr -e 1020 -c 2 -a 0 -i 296 -k RTR
d -t 1.468750000 -s 19 -d -1 -p cbr -e 1020 -c 2 -a 0 -i 298 -k RTR
d -t 1.468750000 -s 13 -d -1 -p cbr -e 1020 -c 2 -a 0 -i 299 -k RTR
d -t 1.468750000 -s 33 -d -1 -p cbr -e 1020 -c 2 -a 0 -i 300 -k RTR
d -t 1.468750000 -s 10 -d -1 -p cbr -e 1020 -c 2 -a 0 -i 301 -k RTR
d -t 1.468750000 -s 22 -d -1 -p cbr -e 1020 -c 2 -a 0 -i 302 -k RTR
d -t 1.468750000 -s 29 -d -1 -p cbr -e 1020 -c 2 -a 0 -i 303 -k RTR
d -t 1.484375000 -s 27 -d -1 -p cbr -e 1020 -c 2 -a 0 -i 304 -k RTR
d -t 1.484375000 -s 14 -d -1 -p cbr -e 1020 -c 2 -a 0 -i 305 -k RTR
d -t 1.484375000 -s 15 -d -1 -p cbr -e 1020 -c 2 -a 0 -i 306 -k RTR
d -t 1.484375000 -s 19 -d -1 -p cbr -e 1020 -c 2 -a 0 -i 308 -k RTR
d -t 1.484375000 -s 13 -d -1 -p cbr -e 1020 -c 2 -a 0 -i 309 -k RTR
d -t 1.484375000 -s 33 -d -1 -p cbr -e 1020 -c 2 -a 0 -i 310 -k RTR
d -t 1.484375000 -s 10 -d -1 -p cbr -e 1020 -c 2 -a 0 -i 311 -k RTR
d -t 1.484375000 -s 22 -d -1 -p cbr -e 1020 -c 2 -a 0 -i 312 -k RTR
d -t 1.484375000 -s 29 -d -1 -p cbr -e 1020 -c 2 -a 0 -i 313 -k RTR
d -t 1.500000000 -s 27 -d -1 -p cbr -e 1020 -c 2 -a 0 -i 314 -k RTR
d -t 1.500000000 -s 14 -d -1 -p cbr -e 1020 -c 2 -a 0 -i 315 -k RTR
d -t 1.500000000 -s 15 -d -1 -p cbr -e 1020 -c 2 -a 0 -i 316 -k RTR
d -t 1.500000000 -s 19 -d -1 -p cbr -e 1020 -c 2 -a 0 -i 318 -k RTR
d -t 1.500000000 -s 13 -d -1 -p cbr -e 1020 -c 2 -a 0 -i 319 -k RTR
d -t 1.500000000 -s 33 -d -1 -p cbr -e 1020 -c 2 -a 0 -i 320 -k RTR
d -t 1.500000000 -s 10 -d -1 -p cbr -e 1020 -c 2 -a 0 -i 321 -k RTR
d -t 1.500000000 -s 22 -d -1 -p cbr -e 1020 -c 2 -a 0 -i 322 -k RTR
d -t 1.500000000 -s 29 -d -1 -p cbr -e 1020 -c 2 -a 0 -i 323 -k RTR
d -t 1.515625000 -s 27 -d -1 -p cbr -e 1020 -c 2 -a 0 -i 324 -k RTR
d -t 1.515625000 -s 14 -d -1 -p cbr -e 1020 -c 2 -a 0 -i 325 -k RTR
d -t 1.515625000 -s 15 -d -1 -p cbr -e 1020 -c 2 -a 0 -i 326 -k RTR
d -t 1.515625000 -s 19 -d -1 -p cbr -e 1020 -c 2 -a 0 -i 328 -k RTR
d -t 1.515625000 -s 13 -d -1 -p cbr -e 1020 -c 2 -a 0 -i 329 -k RTR
d -t 1.515625000 -s 33 -d -1 -p cbr -e 1020 -c 2 -a 0 -i 330 -k RTR
d -t 1.515625000 -s 10 -d -1 -p cbr -e 1020 -c 2 -a 0 -i 331 -k RTR
d -t 1.515625000 -s 22 -d -1 -p cbr -e 1020 -c 2 -a 0 -i 332 -k RTR
d -t 1.515625000 -s 29 -d -1 -p cbr -e 1020 -c 2 -a 0 -i 333 -k RTR
+ -t 1.526928554 -s 23 -d -1 -p message -e 90 -c 2 -a 0 -i 384 -k MAC 
- -t 1.526928554 -s 23 -d -1 -p message -e 90 -c 2 -a 0 -i 384 -k MAC
h -t 1.526928554 -s 23 -d -1 -p message -e 90 -c 2 -a 0 -i 384 -k MAC
r -t 1.527648992 -s 24 -d -1 -p message -e 32 -c 2 -a 0 -i 384 -k MAC
r -t 1.527649082 -s 22 -d -1 -p message -e 32 -c 2 -a 0 -i 384 -k MAC
d -t 1.531250000 -s 27 -d -1 -p cbr -e 1020 -c 2 -a 0 -i 334 -k RTR
d -t 1.531250000 -s 14 -d -1 -p cbr -e 1020 -c 2 -a 0 -i 335 -k RTR
d -t 1.531250000 -s 15 -d -1 -p cbr -e 1020 -c 2 -a 0 -i 336 -k RTR
d -t 1.531250000 -s 19 -d -1 -p cbr -e 1020 -c 2 -a 0 -i 338 -k RTR
d -t 1.531250000 -s 13 -d -1 -p cbr -e 1020 -c 2 -a 0 -i 339 -k RTR
d -t 1.531250000 -s 33 -d -1 -p cbr -e 1020 -c 2 -a 0 -i 340 -k RTR
d -t 1.531250000 -s 10 -d -1 -p cbr -e 1020 -c 2 -a 0 -i 341 -k RTR
d -t 1.531250000 -s 22 -d -1 -p cbr -e 1020 -c 2 -a 0 -i 342 -k RTR
d -t 1.531250000 -s 29 -d -1 -p cbr -e 1020 -c 2 -a 0 -i 343 -k RTR
d -t 1.546875000 -s 27 -d -1 -p cbr -e 1020 -c 2 -a 0 -i 344 -k RTR
d -t 1.546875000 -s 14 -d -1 -p cbr -e 1020 -c 2 -a 0 -i 345 -k RTR
d -t 1.546875000 -s 15 -d -1 -p cbr -e 1020 -c 2 -a 0 -i 346 -k RTR
d -t 1.546875000 -s 19 -d -1 -p cbr -e 1020 -c 2 -a 0 -i 348 -k RTR
d -t 1.546875000 -s 13 -d -1 -p cbr -e 1020 -c 2 -a 0 -i 349 -k RTR
d -t 1.546875000 -s 33 -d -1 -p cbr -e 1020 -c 2 -a 0 -i 350 -k RTR
d -t 1.546875000 -s 10 -d -1 -p cbr -e 1020 -c 2 -a 0 -i 351 -k RTR
d -t 1.546875000 -s 22 -d -1 -p cbr -e 1020 -c 2 -a 0 -i 352 -k RTR
d -t 1.546875000 -s 29 -d -1 -p cbr -e 1020 -c 2 -a 0 -i 353 -k RTR
d -t 1.562500000 -s 27 -d -1 -p cbr -e 1020 -c 2 -a 0 -i 354 -k RTR
d -t 1.562500000 -s 14 -d -1 -p cbr -e 1020 -c 2 -a 0 -i 355 -k RTR
d -t 1.562500000 -s 15 -d -1 -p cbr -e 1020 -c 2 -a 0 -i 356 -k RTR
d -t 1.562500000 -s 19 -d -1 -p cbr -e 1020 -c 2 -a 0 -i 358 -k RTR
d -t 1.562500000 -s 13 -d -1 -p cbr -e 1020 -c 2 -a 0 -i 359 -k RTR